LAMMPS data file

45 atoms
45 ellipsoids
0 bonds
0 angles
0 dihedrals

1 atom types
0 bond types
0 angle types
0 dihedral types

-500.000000 500.000000 xlo xhi
-500.000000 500.000000 ylo yhi
-500.000000 500.000000 zlo zhi

Masses

1 203166.000000

Atoms

1 1 -500.000000 -500.000000 -500.000000 1 1.000000 3 0.000000
2 1 -250.000000 -500.000000 -500.000000 1 1.000000 4 0.000000
3 1 0.000000 -500.000000 -500.000000 1 1.000000 5 0.000000
4 1 250.000000 -500.000000 -500.000000 1 1.000000 6 0.000000
5 1 -500.000000 -250.000000 -500.000000 1 1.000000 7 0.000000
6 1 -250.000000 -250.000000 -500.000000 1 1.000000 8 0.000000
7 1 0.000000 -250.000000 -500.000000 1 1.000000 9 0.000000
8 1 250.000000 -250.000000 -500.000000 1 1.000000 10 0.000000
9 1 -500.000000 0.000000 -500.000000 1 1.000000 11 0.000000
10 1 -250.000000 0.000000 -500.000000 1 1.000000 12 0.000000
11 1 0.000000 0.000000 -500.000000 1 1.000000 13 0.000000
12 1 250.000000 0.000000 -500.000000 1 1.000000 14 0.000000
13 1 -500.000000 250.000000 -500.000000 1 1.000000 15 0.000000
14 1 -250.000000 250.000000 -500.000000 1 1.000000 16 0.000000
15 1 0.000000 250.000000 -500.000000 1 1.000000 17 0.000000
16 1 250.000000 250.000000 -500.000000 1 1.000000 18 0.000000
17 1 -500.000000 -500.000000 -250.000000 1 1.000000 19 0.000000
18 1 -250.000000 -500.000000 -250.000000 1 1.000000 20 0.000000
19 1 0.000000 -500.000000 -250.000000 1 1.000000 21 0.000000
20 1 250.000000 -500.000000 -250.000000 1 1.000000 22 0.000000
21 1 -500.000000 -250.000000 -250.000000 1 1.000000 23 0.000000
22 1 -250.000000 -250.000000 -250.000000 1 1.000000 24 0.000000
23 1 0.000000 -250.000000 -250.000000 1 1.000000 25 0.000000
24 1 250.000000 -250.000000 -250.000000 1 1.000000 26 0.000000
25 1 -500.000000 0.000000 -250.000000 1 1.000000 27 0.000000
26 1 -250.000000 0.000000 -250.000000 1 1.000000 28 0.000000
27 1 0.000000 0.000000 -250.000000 1 1.000000 29 0.000000
28 1 250.000000 0.000000 -250.000000 1 1.000000 30 0.000000
29 1 -500.000000 250.000000 -250.000000 1 1.000000 31 0.000000
30 1 -250.000000 250.000000 -250.000000 1 1.000000 32 0.000000
31 1 0.000000 250.000000 -250.000000 1 1.000000 33 0.000000
32 1 250.000000 250.000000 -250.000000 1 1.000000 34 0.000000
33 1 -500.000000 -500.000000 0.000000 1 1.000000 35 0.000000
34 1 -250.000000 -500.000000 0.000000 1 1.000000 36 0.000000
35 1 0.000000 -500.000000 0.000000 1 1.000000 37 0.000000
36 1 250.000000 -500.000000 0.000000 1 1.000000 38 0.000000
37 1 -500.000000 -250.000000 0.000000 1 1.000000 39 0.000000
38 1 -250.000000 -250.000000 0.000000 1 1.000000 40 0.000000
39 1 0.000000 -250.000000 0.000000 1 1.000000 41 0.000000
40 1 250.000000 -250.000000 0.000000 1 1.000000 42 0.000000
41 1 -500.000000 0.000000 0.000000 1 1.000000 43 0.000000
42 1 -250.000000 0.000000 0.000000 1 1.000000 44 0.000000
43 1 0.000000 0.000000 0.000000 1 1.000000 45 0.000000
44 1 250.000000 0.000000 0.000000 1 1.000000 46 0.000000
45 1 -500.000000 250.000000 0.000000 1 1.000000 47 0.000000

Ellipsoids

1 55.000000 110.000000 110.000000 0.485174 0.089786 0.531929 0.688183
2 55.000000 110.000000 110.000000 0.543600 0.394060 0.280838 0.685817
3 55.000000 110.000000 110.000000 0.113925 0.508643 0.487303 0.700599
4 55.000000 110.000000 110.000000 0.272325 0.316197 0.150879 0.896155
5 55.000000 110.000000 110.000000 0.536734 0.260951 0.801773 0.031318
6 55.000000 110.000000 110.000000 0.040839 0.709071 0.569694 0.413521
7 55.000000 110.000000 110.000000 0.029535 0.151495 0.012910 0.987932
8 55.000000 110.000000 110.000000 0.183313 0.468920 0.443036 0.741775
9 55.000000 110.000000 110.000000 0.713143 0.093965 0.312374 0.620500
10 55.000000 110.000000 110.000000 0.330040 0.650235 0.268830 0.629285
11 55.000000 110.000000 110.000000 0.162862 0.592264 0.391688 0.685040
12 55.000000 110.000000 110.000000 0.145430 0.107093 0.953696 0.240511
13 55.000000 110.000000 110.000000 0.311846 0.835274 0.242698 0.382319
14 55.000000 110.000000 110.000000 0.678990 0.728884 0.045615 0.074966
15 55.000000 110.000000 110.000000 0.683846 0.166114 0.473530 0.529651
16 55.000000 110.000000 110.000000 0.591673 0.463617 0.279562 0.597350
17 55.000000 110.000000 110.000000 0.637328 0.585810 0.418996 0.274011
18 55.000000 110.000000 110.000000 0.584182 0.098883 0.317228 0.740486
19 55.000000 110.000000 110.000000 0.577777 0.217781 0.298125 0.727919
20 55.000000 110.000000 110.000000 0.594316 0.337608 0.633084 0.363338
21 55.000000 110.000000 110.000000 0.055350 0.700979 0.516164 0.489020
22 55.000000 110.000000 110.000000 0.037290 0.633902 0.633975 0.441422
23 55.000000 110.000000 110.000000 0.339894 0.427927 0.774225 0.319259
24 55.000000 110.000000 110.000000 0.326931 0.037982 0.047532 0.943088
25 55.000000 110.000000 110.000000 0.433465 0.039101 0.021877 0.900056
26 55.000000 110.000000 110.000000 0.058501 0.536490 0.586319 0.604141
27 55.000000 110.000000 110.000000 0.896132 0.061251 0.328156 0.292420
28 55.000000 110.000000 110.000000 0.344557 0.668100 0.383577 0.536463
29 55.000000 110.000000 110.000000 0.818039 0.509816 0.099422 0.247013
30 55.000000 110.000000 110.000000 0.712518 0.495815 0.195495 0.456363
31 55.000000 110.000000 110.000000 0.677262 0.559935 0.176625 0.443388
32 55.000000 110.000000 110.000000 0.726781 0.472665 0.462967 0.184496
33 55.000000 110.000000 110.000000 0.194468 0.840471 0.502700 0.055528
34 55.000000 110.000000 110.000000 0.426124 0.827967 0.246290 0.268754
35 55.000000 110.000000 110.000000 0.580743 0.371566 0.034580 0.723519
36 55.000000 110.000000 110.000000 0.062532 0.404673 0.521893 0.748303
37 55.000000 110.000000 110.000000 0.422758 0.279530 0.681621 0.527762
38 55.000000 110.000000 110.000000 0.680947 0.422419 0.584159 0.128961
39 55.000000 110.000000 110.000000 0.326862 0.187216 0.396296 0.837294
40 55.000000 110.000000 110.000000 0.893210 0.048482 0.327503 0.304248
41 55.000000 110.000000 110.000000 0.236350 0.109979 0.953337 0.152290
42 55.000000 110.000000 110.000000 0.054276 0.760158 0.593326 0.259189
43 55.000000 110.000000 110.000000 0.160599 0.522342 0.216403 0.809034
44 55.000000 110.000000 110.000000 0.651210 0.027354 0.179953 0.736746
45 55.000000 110.000000 110.000000 0.709660 0.106338 0.468710 0.515156




