ITEM: TIMESTEP
0
ITEM: NUMBER OF ATOMS
45
ITEM: BOX BOUNDS pp pp pp
-5.0000000000000000e+02 5.0000000000000000e+02
-5.0000000000000000e+02 5.0000000000000000e+02
-5.0000000000000000e+02 5.0000000000000000e+02
ITEM: ATOMS id type x y z c_q[1] c_q[2] c_q[3] c_q[4] 
1 1 -500 -500 -500 0.485174 0.089786 0.531929 0.688183 
2 1 -250 -500 -500 0.5436 0.39406 0.280838 0.685817 
3 1 0 -500 -500 0.113925 0.508643 0.487303 0.700599 
4 1 250 -500 -500 0.272325 0.316197 0.150879 0.896155 
5 1 -500 -250 -500 0.536734 0.260951 0.801773 0.031318 
6 1 -250 -250 -500 0.040839 0.709071 0.569694 0.413521 
7 1 0 -250 -500 0.029535 0.151495 0.01291 0.987932 
8 1 250 -250 -500 0.183313 0.46892 0.443036 0.741775 
9 1 -500 0 -500 0.713143 0.093965 0.312374 0.6205 
10 1 -250 0 -500 0.33004 0.650235 0.26883 0.629285 
11 1 0 0 -500 0.162862 0.592264 0.391688 0.68504 
12 1 250 0 -500 0.14543 0.107093 0.953696 0.240511 
13 1 -500 250 -500 0.311846 0.835274 0.242698 0.382319 
14 1 -250 250 -500 0.67899 0.728884 0.045615 0.074966 
15 1 0 250 -500 0.683846 0.166114 0.47353 0.529651 
16 1 250 250 -500 0.591673 0.463617 0.279562 0.59735 
17 1 -500 -500 -250 0.637328 0.58581 0.418996 0.274011 
18 1 -250 -500 -250 0.584182 0.098883 0.317228 0.740486 
19 1 0 -500 -250 0.577777 0.217781 0.298125 0.727919 
20 1 250 -500 -250 0.594316 0.337608 0.633084 0.363338 
21 1 -500 -250 -250 0.05535 0.700979 0.516164 0.48902 
22 1 -250 -250 -250 0.03729 0.633902 0.633975 0.441422 
23 1 0 -250 -250 0.339894 0.427927 0.774225 0.319259 
24 1 250 -250 -250 0.326931 0.037982 0.047532 0.943088 
25 1 -500 0 -250 0.433465 0.039101 0.021877 0.900056 
26 1 -250 0 -250 0.058501 0.53649 0.586319 0.604141 
27 1 0 0 -250 0.896132 0.061251 0.328156 0.29242 
28 1 250 0 -250 0.344557 0.6681 0.383577 0.536463 
29 1 -500 250 -250 0.818039 0.509816 0.099422 0.247013 
30 1 -250 250 -250 0.712518 0.495815 0.195495 0.456363 
31 1 0 250 -250 0.677262 0.559935 0.176625 0.443388 
32 1 250 250 -250 0.726781 0.472665 0.462967 0.184496 
33 1 -500 -500 0 0.194468 0.840471 0.5027 0.055528 
34 1 -250 -500 0 0.426124 0.827968 0.24629 0.268754 
35 1 0 -500 0 0.580743 0.371566 0.03458 0.723519 
36 1 250 -500 0 0.062532 0.404673 0.521893 0.748303 
37 1 -500 -250 0 0.422758 0.27953 0.681621 0.527762 
38 1 -250 -250 0 0.680947 0.422419 0.584159 0.128961 
39 1 0 -250 0 0.326862 0.187216 0.396296 0.837294 
40 1 250 -250 0 0.89321 0.048482 0.327503 0.304248 
41 1 -500 0 0 0.23635 0.109979 0.953337 0.15229 
42 1 -250 0 0 0.054276 0.760158 0.593326 0.259189 
43 1 0 0 0 0.160599 0.522342 0.216403 0.809034 
44 1 250 0 0 0.65121 0.027354 0.179953 0.736746 
45 1 -500 250 0 0.70966 0.106338 0.46871 0.515156 
ITEM: TIMESTEP
10000
ITEM: NUMBER OF ATOMS
45
ITEM: BOX BOUNDS pp pp pp
-5.0000000000000000e+02 5.0000000000000000e+02
-5.0000000000000000e+02 5.0000000000000000e+02
-5.0000000000000000e+02 5.0000000000000000e+02
ITEM: ATOMS id type x y z c_q[1] c_q[2] c_q[3] c_q[4] 
1 1 498.282 499.585 -498.058 0.498239 0.0851882 0.555867 0.659934 
5 1 -499.288 -250.47 -498.614 0.551611 0.238278 0.797072 0.0602148 
8 1 250.349 -249.864 -494.419 0.176539 0.479628 0.46595 0.722276 
9 1 -498.531 -2.47362 -497.869 0.712057 0.0914489 0.318304 0.619108 
12 1 248.157 -5.78664 -499.338 0.222135 0.116149 0.936642 0.24468 
14 1 -254.442 244.89 -497.707 0.714144 0.693938 0.0567284 0.0723198 
4 1 248.633 496.055 -497.658 0.225527 0.296064 0.140316 0.917494 
18 1 -250.244 -499.836 -245.007 0.6019 0.131537 0.306951 0.725393 
19 1 5.3259 -498.553 -247.151 0.595368 0.249106 0.324839 0.691348 
21 1 -498.643 -251.502 -251.654 0.0748325 0.65084 0.532746 0.535713 
22 1 -246.105 -249.506 -251.382 0.105993 0.609465 0.665218 0.418093 
23 1 -0.123283 -249.407 -252.008 0.389438 0.454497 0.745798 0.292499 
24 1 247.215 -244.741 -248.655 0.299018 0.0458287 0.0830088 0.949525 
26 1 -252.499 0.431974 -248.552 0.0874474 0.535205 0.608084 0.579777 
27 1 -0.704633 -5.47147 -251.364 0.879464 0.0666941 0.329885 0.336558 
28 1 253.614 -4.58873 -247.644 0.367542 0.661799 0.343356 0.555916 
25 1 492.109 -1.45689 -243.438 0.412518 0.075087 0.0278186 0.907423 
29 1 -497.965 252.979 -248.19 0.821482 0.516436 0.048157 0.236944 
30 1 -251.831 244.579 -246.217 0.720396 0.455559 0.256341 0.455834 
31 1 -2.99462 251.507 -248.78 0.649053 0.569268 0.221548 0.453409 
32 1 256.09 250.277 -255.897 0.731677 0.508237 0.408019 0.199662 
20 1 249.69 495.736 -252.078 0.619843 0.28739 0.635939 0.358863 
17 1 494.079 495.785 -253.712 0.610467 0.635306 0.399081 0.253871 
38 1 -245.762 -248.975 -3.09831 0.635292 0.426143 0.635073 0.107186 
39 1 -0.0808662 -256.356 -3.55867 0.346631 0.128409 0.338364 0.865372 
40 1 252.094 -253.262 -0.784033 0.908958 0.0809789 0.30888 0.268014 
41 1 -493.901 -4.11959 0.745774 0.23101 0.100128 0.953556 0.16535 
44 1 253.593 0.0496135 0.570024 0.659562 0.0140401 0.153276 0.735722 
36 1 249.285 499.455 -0.529625 0.0633936 0.365483 0.55575 0.744007 
35 1 1.80574 -499.436 1.21456 0.559961 0.367362 -0.00568466 0.742601 
37 1 496.861 -250.993 1.24264 0.440953 0.280626 0.694619 0.494281 
42 1 -245.327 -1.68559 2.51194 0.0262654 0.782655 0.576348 0.233634 
43 1 2.39583 -3.13983 2.66292 0.145485 0.526309 0.263749 0.795154 
45 1 500.01 248.544 -0.00549035 0.705676 0.119938 0.465382 0.520629 
33 1 -499.49 495.313 -0.0440354 0.177879 0.827502 0.532178 0.0196544 
34 1 -255.706 499.233 -0.857782 0.422847 0.838885 0.237771 0.246855 
2 1 -251.168 -495.538 496.717 0.513099 0.388651 0.288444 0.708858 
3 1 -0.712605 -495.467 499.08 0.125039 0.547269 0.497279 0.661495 
6 1 -250.344 -249.666 -499.97 0.0459144 0.695491 0.573599 0.430312 
7 1 -3.90299 -251.802 497.173 0.0120393 0.136358 0.0286918 0.990171 
11 1 -0.732187 -4.4791 499.249 0.117999 0.608667 0.403356 0.672981 
10 1 -252.092 2.77361 496.233 0.313077 0.648527 0.299554 0.62583 
13 1 -499.102 251.261 497.805 0.31804 0.852393 0.193514 0.367192 
15 1 -0.89239 248.582 496.558 0.671087 0.205733 0.494569 0.512559 
16 1 258.083 250.413 497.631 0.568123 0.495969 0.271553 0.597921 
ITEM: TIMESTEP
20000
ITEM: NUMBER OF ATOMS
45
ITEM: BOX BOUNDS pp pp pp
-5.0000000000000000e+02 5.0000000000000000e+02
-5.0000000000000000e+02 5.0000000000000000e+02
-5.0000000000000000e+02 5.0000000000000000e+02
ITEM: ATOMS id type x y z c_q[1] c_q[2] c_q[3] c_q[4] 
1 1 -498.778 -493.597 -493.819 0.503882 0.0894533 0.580464 0.633374 
3 1 -0.84571 -492.658 -496.919 0.155912 0.512166 0.516875 0.667996 
6 1 -248.753 -250.322 -498.801 0.00668893 0.692675 0.588783 0.416523 
8 1 253.994 -248.339 -495.436 0.155371 0.494142 0.469642 0.714926 
5 1 491.541 -250.735 -497.994 0.562284 0.225591 0.79503 0.0295311 
11 1 -0.195702 -5.17989 -499.539 0.153078 0.599633 0.42355 0.661523 
9 1 -498.156 0.868342 -495.769 0.707376 0.0886174 0.366081 0.598123 
14 1 -257.571 249.073 -496.478 0.722908 0.689247 0.02396 0.0420574 
4 1 250.634 491.738 -499.962 0.222686 0.265675 0.179543 0.920647 
18 1 -250.188 -499.054 -250.774 0.608752 0.1151 0.273369 0.735828 
19 1 2.89564 -499.468 -251.331 0.559662 0.285603 0.351018 0.694259 
22 1 -242.682 -253.469 -252.937 0.0755479 0.610983 0.688245 0.38381 
23 1 -4.49625 -253.088 -252.637 0.396075 0.442651 0.758981 0.266707 
24 1 246.298 -244.328 -243.643 0.27703 0.0505159 0.061855 0.957537 
21 1 498.588 -249.527 -252.661 0.0978916 0.589042 0.590817 0.54257 
26 1 -246.217 -3.13125 -253.015 0.0673725 0.564056 0.60809 0.554553 
27 1 -4.8067 -3.06894 -246.515 0.907768 0.0772591 0.329926 0.247259 
28 1 256.456 -6.39966 -256.834 0.372615 0.645273 0.354143 0.565123 
25 1 487.847 -5.15284 -247.273 0.44728 0.114223 0.0118815 0.886991 
29 1 -498.93 258.31 -246.483 0.811957 0.517486 0.0755211 0.259289 
30 1 -254.919 246.276 -247.113 0.715275 0.466766 0.258929 0.451073 
31 1 -7.10435 253.845 -249.309 0.639116 0.572863 0.211494 0.467577 
32 1 257.99 248.754 -251.683 0.752677 0.471321 0.408089 0.211653 
20 1 246.431 491.949 -250.977 0.587016 0.308994 0.650402 0.370017 
17 1 490.138 489.782 -250.277 0.629384 0.602998 0.398918 0.284841 
38 1 -244.207 -247.441 -3.61275 0.65767 0.418334 0.617571 0.105229 
39 1 1.68135 -256.431 -4.19687 0.345375 0.123746 0.311821 0.876454 
40 1 254.478 -252.325 -5.55941 0.918403 0.103187 0.284963 0.254332 
42 1 -243.572 -0.219752 -4.4092 0.0159794 0.745998 0.589749 0.308916 
45 1 -499.474 248.935 -0.358628 0.717423 0.1291 0.452306 0.513864 
36 1 248.346 497.201 -2.64843 0.0868782 0.294364 0.563312 0.767125 
33 1 496.861 492.952 -2.04024 0.17375 0.793699 0.5823 0.0279225 
37 1 -499.519 -253.187 -0.156001 0.437847 0.304238 0.709831 0.460292 
41 1 -496.365 -6.11516 6.77078 0.241398 0.0630859 0.961642 0.113979 
43 1 4.83573 -8.59133 3.08316 0.128177 0.521116 0.272395 0.79863 
44 1 255.719 -4.35761 2.88799 0.640917 0.0379193 0.204199 0.738979 
34 1 -259.167 499.529 1.80936 0.424413 0.834533 0.228452 0.266904 
35 1 4.02399 494.578 1.32717 0.568274 0.33148 -0.0399249 0.752058 
2 1 -252.298 -496.851 492.06 0.491238 0.401536 0.262176 0.72713 
7 1 -6.39349 -253.167 497.209 0.029141 0.122928 0.0140091 0.991889 
12 1 246.301 -9.95758 498.364 0.194641 0.1646 0.932137 0.257181 
10 1 -253.36 1.13539 496.732 0.345699 0.625726 0.214237 0.665629 
13 1 -499.167 250.371 -499.732 0.334677 0.853767 0.182426 0.354675 
15 1 0.0623168 240.658 498.067 0.662796 0.16797 0.510515 0.521403 
16 1 259.468 252.895 495.384 0.551831 0.496629 0.320558 0.588289 
ITEM: TIMESTEP
30000
ITEM: NUMBER OF ATOMS
45
ITEM: BOX BOUNDS pp pp pp
-5.0000000000000000e+02 5.0000000000000000e+02
-5.0000000000000000e+02 5.0000000000000000e+02
-5.0000000000000000e+02 5.0000000000000000e+02
ITEM: ATOMS id type x y z c_q[1] c_q[2] c_q[3] c_q[4] 
1 1 -498.114 -496.793 -493.002 0.489004 0.0969679 0.609573 0.616355 
3 1 -0.0294541 -493.307 -495.842 0.140201 0.510502 0.480567 0.699133 
8 1 258.553 -245.101 499.507 0.123462 0.51955 0.480105 0.695935 
11 1 -0.780264 -2.72432 -497.989 0.176446 0.589534 0.402276 0.677857 
9 1 -497.223 4.42327 -492.233 0.686174 0.124385 0.375354 0.610576 
13 1 -498.98 247.643 -497.252 0.334359 0.836407 0.193598 0.388776 
14 1 -259.51 249.859 -494.772 0.695028 0.718715 0.0127362 0.0149441 
22 1 -242.945 -249.66 -251.888 0.0661876 0.635776 0.681963 0.355435 
23 1 -2.87826 -246.547 -249.783 0.339082 0.44559 0.791777 0.244053 
24 1 250.078 -241.376 -240.94 0.27886 0.00705766 0.0744394 0.957416 
21 1 498.769 -249.06 -250.659 0.112261 0.618649 0.595856 0.499627 
26 1 -249.003 -6.62269 -252.342 0.057966 0.558577 0.60258 0.567035 
28 1 258.162 -9.20872 -258.388 0.385656 0.603425 0.360482 0.597662 
25 1 493.723 -10.9632 -248.047 0.469907 0.0764149 0.0103895 0.879341 
27 1 3.16813 0.423907 -252.826 0.876932 0.0329775 0.389536 0.279578 
30 1 -257.048 248.126 -248.091 0.673612 0.475335 0.297103 0.481699 
31 1 -7.53924 256.302 -253.705 0.587501 0.642862 0.185673 0.455078 
32 1 254.855 253.919 -248.515 0.77901 0.452606 0.395667 0.178152 
29 1 495.326 257.674 -247.438 0.804281 0.534822 0.135568 0.220725 
18 1 -249.996 496.775 -250.975 0.584413 0.0582311 0.289908 0.755661 
19 1 3.06944 499.947 -255.693 0.524234 0.271158 0.33446 0.734703 
20 1 250.667 488.032 -252.504 0.584127 0.318194 0.650241 0.367062 
17 1 485.016 490.812 -245.664 0.666634 0.59589 0.388107 0.223355 
38 1 -248.06 -240.599 -1.48913 0.70514 0.430289 0.546889 0.136169 
39 1 5.54299 -255.216 -8.36978 0.372849 0.144006 0.316642 0.860223 
40 1 254.968 -247.82 -2.47106 0.926696 0.132146 0.252923 0.244546 
44 1 257.698 -1.96737 -3.56587 0.609517 0.0654612 0.209252 0.761851 
42 1 -238.23 1.75323 -2.1536 0.0378179 0.758835 0.590016 0.273167 
34 1 -259.847 -499.746 -4.9399 0.447815 0.837407 0.201452 0.24006 
35 1 1.221 494.988 -0.416213 0.592111 0.33852 -0.00163615 0.731304 
36 1 251.036 -497.984 5.32289 0.137049 0.317439 0.55513 0.756493 
37 1 499.366 -253.612 1.55255 0.414909 0.314035 0.709817 0.474755 
41 1 -494.91 -7.28188 6.43233 0.266322 0.108869 0.952027 0.104232 
43 1 9.14574 -11.0838 7.7636 0.107813 0.508973 0.266006 0.811519 
45 1 498.543 253.845 6.46352 0.757109 0.101444 0.408222 0.49985 
33 1 499.23 496.623 2.93484 0.209772 0.788774 0.575676 0.049281 
2 1 -251.095 -493.11 487.871 0.519946 0.403478 0.235613 0.715086 
6 1 -252.088 -248.261 497.157 -0.0465204 0.684376 0.595992 0.417442 
7 1 -6.1187 -252.038 497.766 0.0124088 0.132559 0.0395695 0.990307 
5 1 490.399 -248.532 495.534 0.598667 0.222171 0.769073 0.0276475 
10 1 -246.821 -0.0454954 493.96 0.372868 0.618376 0.185026 0.666593 
12 1 244.895 -5.91793 497.293 0.210934 0.176127 0.912709 0.302405 
15 1 -2.19847 240.066 498.148 0.670097 0.188713 0.508336 0.506904 
16 1 259.265 250.535 490.51 0.55184 0.527555 0.321822 0.55999 
4 1 247.541 489.342 497.599 0.201165 0.218769 0.223762 0.928226 
ITEM: TIMESTEP
40000
ITEM: NUMBER OF ATOMS
45
ITEM: BOX BOUNDS pp pp pp
-5.0000000000000000e+02 5.0000000000000000e+02
-5.0000000000000000e+02 5.0000000000000000e+02
-5.0000000000000000e+02 5.0000000000000000e+02
ITEM: ATOMS id type x y z c_q[1] c_q[2] c_q[3] c_q[4] 
1 1 -499.667 -498.632 -492.461 0.494324 0.123354 0.614136 0.602714 
3 1 0.589109 -490.334 -489.558 0.105789 0.493753 0.516756 0.691361 
6 1 -254.452 -249.821 -498.939 -0.0123643 0.707041 0.607015 0.362592 
9 1 -498.904 9.39225 -492.052 0.708781 0.115567 0.375147 0.586122 
11 1 1.86584 1.60687 498.711 0.196788 0.583283 0.39249 0.683379 
13 1 -494.559 245.025 -496.238 0.314338 0.858283 0.122519 0.386693 
14 1 -260.952 241.163 -489.66 0.697594 0.715167 -0.0407912 -0.0153191 
22 1 -242.427 -244.899 -248.437 0.107346 0.629008 0.679309 0.362442 
23 1 -1.21077 -245.25 -249.034 0.353333 0.391507 0.804716 0.2726 
24 1 250.618 -241.682 -239.56 0.293849 -0.00399334 0.0715186 0.953164 
21 1 497.515 -252.473 -255.488 0.111527 0.642847 0.599453 0.463644 
26 1 -248.851 -11.5476 -251.846 0.0772617 0.557396 0.600989 0.567585 
27 1 -0.438084 0.307355 -250.198 0.879202 0.0118314 0.369052 0.301105 
28 1 258.024 -3.80117 -260.304 0.36397 0.605566 0.35005 0.615045 
25 1 493.32 -9.20404 -245.601 0.477922 0.0476325 -0.0403394 0.876182 
30 1 -258.911 250.672 -248.777 0.68317 0.443575 0.324273 0.481006 
31 1 -6.6579 258.545 -252.825 0.571189 0.64768 0.177346 0.47202 
32 1 253.456 254.006 -244.267 0.745364 0.456888 0.454728 0.170027 
29 1 495.595 257.087 -249.533 0.810183 0.514593 0.120973 0.253305 
18 1 -251.425 497.777 -254.162 0.596517 0.0678734 0.230674 0.765735 
19 1 4.49617 -499.228 -258.013 0.516485 0.248244 0.32127 0.753926 
20 1 252.164 491.255 -247.786 0.588301 0.33256 0.636662 0.37144 
17 1 481.737 490.887 -246.435 0.63657 0.617563 0.41635 0.200119 
37 1 -499.019 -249.237 0.556934 0.399541 0.289671 0.73157 0.470385 
39 1 1.37678 -253.195 -12.0569 0.345441 0.1453 0.309592 0.873906 
40 1 255.885 -248.259 -1.44411 0.941743 0.124036 0.24712 0.191484 
44 1 259.991 -6.25445 -4.44576 0.632795 0.0739846 0.279809 0.718194 
34 1 -253.611 496.84 -6.60473 0.454682 0.828713 0.19687 0.260272 
35 1 0.699945 493.289 -3.49606 0.589108 0.380182 -0.00818375 0.712984 
36 1 252.027 -499.794 8.30586 0.163603 0.320142 0.510777 0.780929 
38 1 -245.726 -241.553 1.94826 0.731626 0.431657 0.519886 0.09008 
41 1 -494.517 -9.44866 7.40088 0.248451 0.127247 0.95473 0.102813 
43 1 10.5309 -12.2043 10.6315 0.156539 0.464009 0.256482 0.833312 
42 1 -240.923 5.63262 2.20607 0.0586532 0.781975 0.548873 0.289507 
45 1 -496.897 249.26 2.88192 0.729066 0.0888427 0.448748 0.509111 
33 1 494.801 498.946 6.37874 0.26871 0.729442 0.624502 0.0755409 
2 1 -247.038 -489.918 489.388 0.527084 0.434803 0.245553 0.687628 
7 1 -5.17203 -260.11 497.331 0.0257371 0.158766 0.0589784 0.985217 
8 1 259.572 -244.109 495.049 0.0946819 0.496771 0.474389 0.720562 
5 1 492.692 -249.348 486.938 0.588544 0.255769 0.766629 -0.0218541 
12 1 239.711 -6.50714 496.415 0.190851 0.189761 0.905138 0.329076 
10 1 -251.135 4.56304 492.546 0.320195 0.62883 0.206729 0.677725 
15 1 -2.81431 241.063 498.66 0.692422 0.204533 0.484388 0.494051 
16 1 262.604 255.113 492.729 0.553745 0.508466 0.347947 0.560145 
4 1 252.018 496.071 497.754 0.18071 0.239775 0.225609 0.926797 
ITEM: TIMESTEP
50000
ITEM: NUMBER OF ATOMS
45
ITEM: BOX BOUNDS pp pp pp
-5.0000000000000000e+02 5.0000000000000000e+02
-5.0000000000000000e+02 5.0000000000000000e+02
-5.0000000000000000e+02 5.0000000000000000e+02
ITEM: ATOMS id type x y z c_q[1] c_q[2] c_q[3] c_q[4] 
3 1 -2.40181 -487.969 -490.379 0.11584 0.491495 0.490218 0.710422 
1 1 497.538 -499.76 -490.081 0.492832 0.118296 0.638064 0.579652 
6 1 -256.634 -249.178 499.886 -0.0471858 0.713595 0.603769 0.352163 
9 1 -499.107 10.7959 -492.868 0.730323 0.12667 0.383692 0.550784 
13 1 -491.426 247.521 -495.408 0.336406 0.853071 0.168988 0.361309 
14 1 -258.859 239.222 -489.201 0.666747 0.738754 -0.0975512 -0.0132472 
15 1 -1.31158 243.567 500.116 0.677189 0.245601 0.511368 0.468613 
18 1 -252.924 -499.72 -259.169 0.586564 0.0213989 0.20541 0.783129 
19 1 0.733112 -499.147 -254.814 0.529572 0.19824 0.32062 0.759906 
22 1 -244.908 -242.568 -248.542 0.112415 0.638218 0.683881 0.335182 
23 1 1.20612 -243.855 -252.154 0.415174 0.391753 0.769644 0.286021 
24 1 251.114 -241.137 -242.255 0.269934 -0.0148771 0.107617 0.95673 
21 1 496.15 -251.669 -252.159 0.086416 0.679764 0.577531 0.443748 
26 1 -250.17 -0.803325 -248.634 0.0664048 0.541067 0.611674 0.573316 
28 1 263.853 0.584603 -258.391 0.335067 0.620248 0.375481 0.601694 
25 1 493.495 -9.73963 -245.69 0.521991 0.0887644 -0.040329 0.84736 
27 1 4.02811 1.12717 -248.353 0.870749 -0.0479643 0.382505 0.305263 
30 1 -258.989 252.165 -252.92 0.665385 0.444016 0.365394 0.476025 
31 1 -3.85604 258.294 -254.174 0.583839 0.65525 0.153789 0.454014 
32 1 251.741 254.367 -244.284 0.755912 0.490315 0.40462 0.156433 
29 1 494.869 253.294 -245.483 0.811929 0.527605 0.103063 0.227557 
20 1 257.504 487.018 -250.781 0.567269 0.307645 0.635906 0.423301 
17 1 479.102 488.594 -243.582 0.621335 0.642765 0.404643 0.19251 
34 1 -253.143 -499.099 -3.84649 0.441106 0.837443 0.153317 0.283917 
37 1 -499.08 -247.319 -5.18207 0.401516 0.296057 0.725713 0.473788 
38 1 -243.7 -236.844 0.426691 0.760786 0.394293 0.503785 0.109265 
39 1 7.97593 -251.375 -13.6447 0.298373 0.143335 0.301583 0.894134 
40 1 256.005 -240.544 -1.31785 0.929947 0.0938067 0.28731 0.209409 
44 1 260.238 -6.16097 -1.69851 0.641426 0.104673 0.3017 0.697563 
35 1 -4.23538 489.366 -3.44817 0.582223 0.355207 0.0196862 0.731066 
41 1 -495.795 -9.61754 9.83334 0.272031 0.100275 0.954057 0.0756243 
43 1 15.3466 -7.75165 13.084 0.172029 0.487232 0.2496 0.818969 
42 1 -242.281 8.28046 1.15837 0.0388665 0.795329 0.542307 0.268037 
45 1 499.19 253.928 2.12103 0.713329 0.0400767 0.462859 0.524707 
36 1 252.912 498.323 8.99733 0.182503 0.266638 0.545635 0.773227 
33 1 490.784 499.978 0.85835 0.242165 0.738636 0.627158 0.0494508 
2 1 -245.067 -487.833 488.947 0.488163 0.425437 0.22823 0.727057 
4 1 252.618 -499.579 494.187 0.186655 0.288178 0.247477 0.906018 
7 1 -2.37779 -257.897 494.124 0.0652833 0.15524 0.100606 0.98057 
8 1 256.331 -242.695 498.309 0.0740896 0.488293 0.471612 0.730523 
5 1 494.233 -246.172 493.99 0.585381 0.202001 0.784579 0.0309866 
11 1 8.61635 -4.41151 497.38 0.239379 0.559656 0.404431 0.682582 
12 1 237.498 -6.90606 494.149 0.234425 0.172202 0.910281 0.294584 
10 1 -251.338 5.52213 490.787 0.34375 0.644414 0.188571 0.656512 
16 1 258.933 252.698 496.075 0.592566 0.484237 0.333493 0.550601 
ITEM: TIMESTEP
60000
ITEM: NUMBER OF ATOMS
45
ITEM: BOX BOUNDS pp pp pp
-5.0000000000000000e+02 5.0000000000000000e+02
-5.0000000000000000e+02 5.0000000000000000e+02
-5.0000000000000000e+02 5.0000000000000000e+02
ITEM: ATOMS id type x y z c_q[1] c_q[2] c_q[3] c_q[4] 
3 1 -2.85797 -485.326 -495.858 0.141635 0.513429 0.502023 0.681398 
6 1 -254.669 -249.881 499.538 -0.0360836 0.70428 0.625438 0.33394 
9 1 -499.914 3.10375 -491.184 0.732923 0.0979728 0.393747 0.546066 
13 1 -496.703 247.482 -491.788 0.281443 0.858006 0.192941 0.383913 
14 1 -256.701 239.465 -485.087 0.678468 0.728134 -0.0963658 -0.0147201 
15 1 -7.8464 249.325 -497.148 0.669843 0.22783 0.518867 0.479771 
1 1 496.143 496.507 -492.29 0.4603 0.11795 0.677144 0.561861 
19 1 3.09563 -496.614 -263.252 0.564992 0.199506 0.344432 0.722737 
22 1 -242.309 -242.849 -249.665 0.133113 0.628265 0.704051 0.303112 
23 1 8.55077 -252.472 -253.772 0.364674 0.424814 0.764704 0.31902 
24 1 254.149 -242.936 -245.998 0.247037 0.0257155 0.0940947 0.964084 
21 1 498.969 -256.301 -248.54 0.0855968 0.719035 0.569539 0.388956 
26 1 -247.244 -2.3381 -250.959 0.0802544 0.511353 0.634571 0.573932 
27 1 -2.80398 0.244264 -251.071 0.861814 -0.0591712 0.389281 0.319742 
25 1 489.107 -9.51161 -244.82 0.480408 0.0805917 -0.055321 0.871581 
28 1 259.745 3.85483 -258.536 0.362256 0.620418 0.364453 0.592475 
30 1 -260.087 245.354 -253.559 0.653371 0.402522 0.379588 0.516717 
31 1 -4.09284 255.99 -253.8 0.54769 0.689162 0.176136 0.440531 
32 1 250.76 250.505 -244.363 0.755708 0.491039 0.412011 0.134287 
29 1 499.57 259.682 -244.888 0.777263 0.54013 0.159569 0.280463 
18 1 -254.289 497.916 -257.511 0.615924 0.00809845 0.197145 0.762696 
20 1 262.553 483.375 -252.775 0.586203 0.298344 0.622779 0.423678 
17 1 478.093 491.819 -244.443 0.620615 0.650062 0.390215 0.199973 
34 1 -252.265 -499.378 -1.18389 0.450912 0.825347 0.197903 0.276253 
37 1 -498.549 -254.116 -4.65497 0.392634 0.328251 0.710577 0.482876 
39 1 9.09151 -253.186 -10.5758 0.303028 0.238647 0.265761 0.883511 
40 1 256.785 -241.247 0.994717 0.938026 0.0765759 0.270947 0.202068 
44 1 259.408 -7.01242 -3.94196 0.62489 0.0989633 0.324129 0.70332 
35 1 -8.63499 494.276 -4.71562 0.58946 0.360886 0.068543 0.719444 
36 1 255.148 -499.789 5.59441 0.209567 0.251642 0.540356 0.775096 
38 1 -243.65 -241.155 3.09145 0.761714 0.383577 0.491969 0.175007 
41 1 -492.112 -9.913 7.15934 0.223426 0.103265 0.965822 0.0812711 
43 1 12.0729 -10.2923 8.29019 0.133835 0.470139 0.233811 0.84047 
42 1 -240.506 11.4734 0.848989 0.0366854 0.78979 0.524934 0.315168 
45 1 498.853 253.342 1.93643 0.74643 0.000779711 0.415537 0.51978 
33 1 490.586 499.109 -0.0756338 0.252127 0.730921 0.632909 0.0401628 
2 1 -243.714 -490.257 487.168 0.455643 0.396797 0.238853 0.760192 
7 1 -1.54513 -256.099 492.738 0.0605531 0.166009 0.0876814 0.98035 
8 1 259.554 -242.443 497.172 0.0544811 0.528099 0.459899 0.711784 
5 1 496.325 -243.374 492.971 0.568541 0.202438 0.797319 -0.00788405 
11 1 6.31152 -8.23796 495.054 0.225957 0.58521 0.426968 0.651284 
12 1 231.503 -2.64942 495.131 0.225882 0.197265 0.913189 0.275953 
10 1 -249.353 11.7955 491.185 0.321459 0.638431 0.21358 0.665924 
16 1 257.744 253.098 492.606 0.628899 0.480268 0.326501 0.516939 
4 1 253.055 497.123 496.668 0.176142 0.309843 0.306804 0.882521 
ITEM: TIMESTEP
70000
ITEM: NUMBER OF ATOMS
45
ITEM: BOX BOUNDS pp pp pp
-5.0000000000000000e+02 5.0000000000000000e+02
-5.0000000000000000e+02 5.0000000000000000e+02
-5.0000000000000000e+02 5.0000000000000000e+02
ITEM: ATOMS id type x y z c_q[1] c_q[2] c_q[3] c_q[4] 
3 1 -1.17968 -488.539 -498.319 0.213302 0.477027 0.513813 0.6804 
6 1 -252.761 -248.337 -494.601 -0.0555444 0.658382 0.678261 0.321574 
9 1 497.384 1.84308 -492.042 0.716179 0.0751313 0.395633 0.570016 
14 1 -258.745 240.591 -481.889 0.682438 0.718787 -0.113535 -0.0688022 
13 1 498.412 247.181 -496.48 0.250769 0.876139 0.16727 0.376187 
1 1 497.893 498.657 -497.054 0.477036 0.139958 0.671422 0.549583 
19 1 -2.57639 -499.241 -264.194 0.604427 0.212192 0.32765 0.69447 
22 1 -245.82 -239.19 -245.838 0.16075 0.646586 0.705479 0.241632 
23 1 14.1516 -246.178 -256.16 0.369478 0.500896 0.716574 0.314819 
24 1 252.447 -249.343 -243.039 0.251538 0.108882 0.107157 0.955715 
21 1 499.673 -257.335 -248.257 0.0850632 0.726845 0.543394 0.41132 
27 1 -4.75433 -3.70146 -256.719 0.864367 -0.0751115 0.376407 0.324878 
25 1 490.428 -13.2428 -244.949 0.480643 0.0888068 -0.0368355 0.87163 
26 1 -247.222 4.44678 -248.825 0.0946646 0.516894 0.630716 0.571013 
28 1 257.48 7.00079 -263.471 0.356948 0.61458 0.39938 0.579116 
29 1 -497.284 257.428 -241.134 0.750721 0.58558 0.154269 0.264037 
30 1 -259.811 243.237 -257.28 0.669361 0.405776 0.36627 0.503139 
31 1 -2.78055 256.009 -258.485 0.567254 0.67335 0.152396 0.448996 
32 1 249.482 253.163 -244.614 0.754829 0.468782 0.438081 0.136244 
18 1 -253.103 498.272 -255.359 0.624324 0.0612904 0.212047 0.749332 
20 1 262.254 483.374 -254.118 0.611513 0.290425 0.607783 0.415096 
17 1 475 499.105 -245.04 0.619827 0.647963 0.402705 0.183813 
37 1 -498.307 -255.688 -6.41079 0.408019 0.321685 0.713289 0.47038 
39 1 9.99023 -252.969 -9.85524 0.266748 0.2388 0.254852 0.89826 
40 1 259.272 -239.003 -0.493355 0.944767 0.0364284 0.210796 0.248301 
44 1 260.569 -12.5773 -7.69399 0.605056 0.115295 0.312029 0.723362 
42 1 -243.687 11.8774 -7.09898 0.0143822 0.750256 0.565515 0.342202 
45 1 496.018 250.121 -2.00352 0.761057 0.00625617 0.39974 0.510844 
35 1 -7.87218 488.451 -4.12481 0.584161 0.364976 0.102613 0.717648 
34 1 -258.047 -497.655 3.68159 0.461556 0.821797 0.192371 0.273146 
36 1 252.31 -499.62 3.02178 0.178606 0.257986 0.564899 0.763173 
38 1 -245.585 -240.309 2.94749 0.744305 0.320932 0.553634 0.191056 
41 1 -487.864 -8.29863 11.7401 0.249801 0.113553 0.955987 0.103898 
43 1 10.4983 -14.5873 9.52805 0.166332 0.496367 0.25608 0.812636 
33 1 491.316 495.985 3.59517 0.233006 0.77151 0.591295 -0.02917 
2 1 -240.031 -490.379 484.429 0.439286 0.38277 0.251246 0.77291 
7 1 0.521995 -257.807 496.175 0.0699082 0.12979 0.126642 0.980933 
8 1 260.782 -239.002 496.088 -0.0157939 0.526551 0.507721 0.6817 
5 1 492.363 -235.35 492.951 0.56338 0.197229 0.802055 0.0202768 
11 1 6.32567 -10.9603 497.36 0.215752 0.613285 0.391147 0.651411 
12 1 232.746 -5.49842 490.054 0.25205 0.188079 0.903534 0.291074 
10 1 -244.099 13.5677 492.064 0.327056 0.588284 0.244762 0.697888 
15 1 -9.30143 249.572 499.298 0.664871 0.24431 0.477692 0.519683 
16 1 256.521 256.399 485.025 0.623742 0.50976 0.286364 0.518736 
4 1 250.287 492.768 492.563 0.210479 0.363518 0.301109 0.856088 
ITEM: TIMESTEP
80000
ITEM: NUMBER OF ATOMS
45
ITEM: BOX BOUNDS pp pp pp
-5.0000000000000000e+02 5.0000000000000000e+02
-5.0000000000000000e+02 5.0000000000000000e+02
-5.0000000000000000e+02 5.0000000000000000e+02
ITEM: ATOMS id type x y z c_q[1] c_q[2] c_q[3] c_q[4] 
3 1 -1.76321 -485.257 -496.901 0.203523 0.497131 0.477857 0.695048 
6 1 -248.693 -249.428 -497.714 -0.0683662 0.65525 0.680058 0.321707 
9 1 497.746 0.895251 -488.269 0.705436 0.135088 0.432158 0.545299 
14 1 -254.511 238.256 -485.273 0.667227 0.732294 -0.116147 -0.0711586 
15 1 -13.1587 244.121 -496.539 0.658337 0.280826 0.491556 0.496087 
13 1 497.635 250.151 -492.563 0.235234 0.881467 0.164529 0.374981 
1 1 -496.908 494.944 -491.698 0.48026 0.0995443 0.671187 0.555832 
18 1 -258.402 -496.849 -261.936 0.659573 0.0801496 0.188932 0.723079 
17 1 473.594 -498.548 -251.472 0.59874 0.671066 0.423946 0.10701 
22 1 -240.852 -239.66 -243.431 0.190212 0.589677 0.741427 0.257657 
23 1 17.9093 -249.39 -259.859 0.335826 0.539298 0.704227 0.316926 
24 1 255.331 -251.781 -239.104 0.250787 0.117152 0.143101 0.950212 
21 1 497.457 -254.71 -249.723 0.0551347 0.718257 0.554069 0.417223 
27 1 -8.11514 -5.23991 -257.171 0.851709 -0.0153711 0.407018 0.329683 
25 1 493.17 -10.7536 -242.821 0.483789 0.0328476 -0.0779154 0.871091 
26 1 -244.182 -0.813334 -243.446 0.0847163 0.513952 0.628355 0.577794 
28 1 254.07 9.50404 -253.799 0.370407 0.573082 0.39197 0.617037 
29 1 -494.915 258.444 -244.278 0.732234 0.608255 0.135778 0.274632 
30 1 -255.607 241.295 -255.476 0.687417 0.411829 0.359927 0.477815 
31 1 -5.83994 258.671 -260.553 0.587336 0.675163 0.0761402 0.439766 
32 1 250.659 250.666 -247.228 0.776673 0.431557 0.442358 0.121888 
19 1 -1.66133 498.286 -263.428 0.592494 0.220582 0.347856 0.692309 
20 1 262.829 485.819 -257.504 0.607762 0.243969 0.635625 0.408761 
37 1 -496.92 -257.226 -9.62638 0.437195 0.306412 0.69199 0.485924 
39 1 8.66491 -252.15 -10.2977 0.202899 0.199281 0.279151 0.917166 
44 1 264.368 -9.97434 -10.9826 0.588812 0.113092 0.29348 0.744567 
42 1 -242.402 13.6466 -8.39872 0.0271135 0.744329 0.580769 0.328552 
34 1 -259.654 -496.065 2.1266 0.431345 0.838653 0.185501 0.276028 
36 1 255.043 -493.625 4.40459 0.171639 0.250506 0.576109 0.758871 
38 1 -244.507 -245.628 1.27427 0.734064 0.312181 0.587238 0.137277 
40 1 260.951 -232.948 2.7126 0.942406 0.0531189 0.220109 0.246174 
41 1 -483.878 -10.0148 7.94283 0.277334 0.107595 0.948361 0.110089 
43 1 11.2606 -13.7394 4.72194 0.186511 0.454035 0.232396 0.839677 
45 1 498.984 250.793 2.1884 0.767075 0.014699 0.365282 0.527209 
35 1 -9.50247 491.168 -0.769345 0.58563 0.390132 0.0798011 0.706022 
33 1 495.323 496.035 2.71754 0.228697 0.758331 0.610333 0.0112124 
2 1 -243.355 -491.567 488.206 0.443619 0.348261 0.251696 0.786489 
7 1 -1.05046 -259.776 494.215 0.00217844 0.107282 0.149302 0.982952 
8 1 262.872 -235.916 -499.732 0.00471382 0.552548 0.492713 0.672237 
5 1 492.743 -235.991 494.1 0.56374 0.190395 0.802647 0.0412956 
11 1 11.4122 -10.2138 493.986 0.176704 0.614308 0.417405 0.645891 
12 1 230.037 -3.90789 484.69 0.253719 0.195376 0.899642 0.296815 
10 1 -242.442 6.00254 494.557 0.321056 0.582624 0.202668 0.718609 
16 1 258.17 254.694 484.711 0.596965 0.52437 0.31801 0.517241 
4 1 246.303 491.797 491.401 0.213897 0.31459 0.337215 0.861143 
ITEM: TIMESTEP
90000
ITEM: NUMBER OF ATOMS
45
ITEM: BOX BOUNDS pp pp pp
-5.0000000000000000e+02 5.0000000000000000e+02
-5.0000000000000000e+02 5.0000000000000000e+02
-5.0000000000000000e+02 5.0000000000000000e+02
ITEM: ATOMS id type x y z c_q[1] c_q[2] c_q[3] c_q[4] 
3 1 -2.25104 -487.839 -499.364 0.216292 0.455879 0.491359 0.709901 
6 1 -251.912 -247.243 -498.851 -0.0396115 0.641782 0.696864 0.317691 
9 1 499.615 5.12617 -491.489 0.663462 0.203762 0.47305 0.5427 
13 1 -499.411 246.405 -489 0.257175 0.862088 0.189141 0.393561 
14 1 -254.513 240.881 -485.402 0.685532 0.710719 -0.149583 -0.0504936 
15 1 -19.1546 247.888 -496.835 0.640359 0.311717 0.48835 0.504269 
1 1 -497.324 494.505 -489.092 0.465085 0.0303507 0.673665 0.573541 
18 1 -257.619 -495.559 -263.635 0.660668 0.021892 0.191925 0.725399 
22 1 -240.207 -238.903 -240.326 0.162077 0.611295 0.741769 0.223224 