ITEM: TIMESTEP
0
ITEM: NUMBER OF ATOMS
15
ITEM: BOX BOUNDS
-500.000000 500.000000
-500.000000 500.000000
-500.000000 500.000000
ITEM: ATOMS id type x y z c_q[1] c_q[2] c_q[3] c_q[4]
1 1 -500.000000 -500.000000 -500.000000 0.860917 0.327784 0.148930 0.359444
2 1 -166.666667 -500.000000 -500.000000 0.185285 0.922364 0.337745 0.029036
3 1 166.666667 -500.000000 -500.000000 0.343093 0.642860 0.290528 0.620171
4 1 -500.000000 -166.666667 -500.000000 0.406066 0.681752 0.517439 0.320283
5 1 -166.666667 -166.666667 -500.000000 0.494790 0.328174 0.753955 0.281135
6 1 166.666667 -166.666667 -500.000000 0.229608 0.033386 0.969303 0.081351
7 1 -500.000000 166.666667 -500.000000 0.721010 0.346424 0.599491 0.027289
8 1 -166.666667 166.666667 -500.000000 0.593961 0.084302 0.791698 0.115405
9 1 166.666667 166.666667 -500.000000 0.935777 0.128014 0.050476 0.324632
10 1 -500.000000 -500.000000 -166.666667 0.648381 0.314156 0.612394 0.325395
11 1 -166.666667 -500.000000 -166.666667 0.567538 0.560579 0.025006 0.602517
12 1 166.666667 -500.000000 -166.666667 0.692515 0.519770 0.119013 0.485900
13 1 -500.000000 -166.666667 -166.666667 0.296939 0.354607 0.775113 0.430442
14 1 -166.666667 -166.666667 -166.666667 0.584738 0.485871 0.603052 0.241534
15 1 166.666667 -166.666667 -166.666667 0.205711 0.711801 0.670541 0.037389
