LAMMPS data file

15 atoms
15 ellipsoids
0 bonds
0 angles
0 dihedrals

1 atom types
0 bond types
0 angle types
0 dihedral types

-500.000000 500.000000 xlo xhi
-500.000000 500.000000 ylo yhi
-500.000000 500.000000 zlo zhi

Masses

1 203166.000000

Atoms

1 1 -500.000000 -500.000000 -500.000000 1 1.000000 3 0.000000
2 1 -166.666667 -500.000000 -500.000000 1 1.000000 4 0.000000
3 1 166.666667 -500.000000 -500.000000 1 1.000000 5 0.000000
4 1 -500.000000 -166.666667 -500.000000 1 1.000000 6 0.000000
5 1 -166.666667 -166.666667 -500.000000 1 1.000000 7 0.000000
6 1 166.666667 -166.666667 -500.000000 1 1.000000 8 0.000000
7 1 -500.000000 166.666667 -500.000000 1 1.000000 9 0.000000
8 1 -166.666667 166.666667 -500.000000 1 1.000000 10 0.000000
9 1 166.666667 166.666667 -500.000000 1 1.000000 11 0.000000
10 1 -500.000000 -500.000000 -166.666667 1 1.000000 12 0.000000
11 1 -166.666667 -500.000000 -166.666667 1 1.000000 13 0.000000
12 1 166.666667 -500.000000 -166.666667 1 1.000000 14 0.000000
13 1 -500.000000 -166.666667 -166.666667 1 1.000000 15 0.000000
14 1 -166.666667 -166.666667 -166.666667 1 1.000000 16 0.000000
15 1 166.666667 -166.666667 -166.666667 1 1.000000 17 0.000000

Ellipsoids

1 55.000000 110.000000 110.000000 0.860917 0.327784 0.148930 0.359444
2 55.000000 110.000000 110.000000 0.185285 0.922364 0.337745 0.029036
3 55.000000 110.000000 110.000000 0.343093 0.642860 0.290528 0.620171
4 55.000000 110.000000 110.000000 0.406066 0.681752 0.517439 0.320283
5 55.000000 110.000000 110.000000 0.494790 0.328174 0.753955 0.281135
6 55.000000 110.000000 110.000000 0.229608 0.033386 0.969303 0.081351
7 55.000000 110.000000 110.000000 0.721010 0.346424 0.599491 0.027289
8 55.000000 110.000000 110.000000 0.593961 0.084302 0.791698 0.115405
9 55.000000 110.000000 110.000000 0.935777 0.128014 0.050476 0.324632
10 55.000000 110.000000 110.000000 0.648381 0.314156 0.612394 0.325395
11 55.000000 110.000000 110.000000 0.567538 0.560579 0.025006 0.602517
12 55.000000 110.000000 110.000000 0.692515 0.519770 0.119013 0.485900
13 55.000000 110.000000 110.000000 0.296939 0.354607 0.775113 0.430442
14 55.000000 110.000000 110.000000 0.584738 0.485871 0.603052 0.241534
15 55.000000 110.000000 110.000000 0.205711 0.711801 0.670541 0.037389




