ITEM: TIMESTEP
0
ITEM: NUMBER OF ATOMS
35
ITEM: BOX BOUNDS pp pp pp
-5.0000000000000000e+02 5.0000000000000000e+02
-5.0000000000000000e+02 5.0000000000000000e+02
-5.0000000000000000e+02 5.0000000000000000e+02
ITEM: ATOMS id type x y z c_q[1] c_q[2] c_q[3] c_q[4] 
1 1 -500 -500 -500 0.400992 0.6006 0.501275 0.476663 
2 1 -250 -500 -500 0.691534 0.380451 0.173469 0.589021 
3 1 0 -500 -500 0.310801 0.265325 0.750561 0.519292 
4 1 250 -500 -500 0.171581 0.6611 0.627942 0.373089 
5 1 -500 -250 -500 0.718107 0.254111 0.547832 0.345877 
6 1 -250 -250 -500 0.376349 0.017721 0.60039 0.705393 
7 1 0 -250 -500 0.944169 0.089474 0.258652 0.18341 
8 1 250 -250 -500 0.278261 0.937514 0.00525 0.20883 
9 1 -500 0 -500 0.585864 0.572796 0.175732 0.545698 
10 1 -250 0 -500 0.297624 0.593187 0.202716 0.720039 
11 1 0 0 -500 0.12634 0.6215 0.70299 0.32184 
12 1 250 0 -500 0.664333 0.547006 0.402527 0.312118 
13 1 -500 250 -500 0.570827 0.446587 0.682995 0.090748 
14 1 -250 250 -500 0.802857 0.185088 0.421822 0.378457 
15 1 0 250 -500 0.698044 0.194138 0.128164 0.677214 
16 1 250 250 -500 0.459256 0.537382 0.684413 0.178556 
17 1 -500 -500 -250 0.440744 0.763301 0.071056 0.466977 
18 1 -250 -500 -250 0.544167 0.525942 0.481779 0.441764 
19 1 0 -500 -250 0.508362 0.750069 0.23377 0.352584 
20 1 250 -500 -250 0.412818 0.220564 0.291809 0.834134 
21 1 -500 -250 -250 0.475681 0.221633 0.574786 0.627875 
22 1 -250 -250 -250 0.470566 0.012808 0.329686 0.818359 
23 1 0 -250 -250 0.687067 0.137123 0.354562 0.619211 
24 1 250 -250 -250 0.745904 0.500415 0.295952 0.324999 
25 1 -500 0 -250 0.42104 0.83083 0.17017 0.321697 
26 1 -250 0 -250 0.612509 0.262368 0.400929 0.62869 
27 1 0 0 -250 0.391813 0.169344 0.135302 0.894147 
28 1 250 0 -250 0.216228 0.472997 0.633627 0.572744 
29 1 -500 250 -250 0.322085 0.524246 0.411652 0.672287 
30 1 -250 250 -250 0.541756 0.817872 0.003515 0.193838 
31 1 0 250 -250 0.143688 0.318681 0.36742 0.861858 
32 1 250 250 -250 0.635454 0.144284 0.678689 0.338764 
33 1 -500 -500 0 0.168155 0.569995 0.713503 0.371138 
34 1 -250 -500 0 0.804437 0.122949 0.574857 0.085464 
35 1 0 -500 0 0.453605 0.373091 0.667457 0.457763 
ITEM: TIMESTEP
10000
ITEM: NUMBER OF ATOMS
35
ITEM: BOX BOUNDS pp pp pp
-5.0000000000000000e+02 5.0000000000000000e+02
-5.0000000000000000e+02 5.0000000000000000e+02
-5.0000000000000000e+02 5.0000000000000000e+02
ITEM: ATOMS id type x y z c_q[1] c_q[2] c_q[3] c_q[4] 
2 1 -250.934 -498.935 -497.787 0.723659 0.322261 0.111017 0.600117 
5 1 -497.502 -246.699 499.191 0.699777 0.244316 0.566814 0.359644 
6 1 -251.382 -256.366 -495.276 0.342183 -0.0662726 0.603656 0.71702 
8 1 252.808 -251.548 499.856 0.220571 0.957822 0.0717833 0.169626 
9 1 -495.31 1.16495 499.866 0.565961 0.577955 0.197291 0.553834 
10 1 -252.988 -0.466379 -498.886 0.303643 0.627434 0.227496 0.67998 
13 1 -498.083 255.611 -498.638 0.573647 0.444316 0.685231 0.0630096 
1 1 496.558 498.096 -499.838 0.457724 0.593493 0.458956 0.477089 
21 1 -498.447 -250.035 -253.179 0.411556 0.231383 0.567381 0.674657 
22 1 -246.811 -248.523 -251.233 0.464249 0.0530607 0.353486 0.810373 
23 1 5.86972 -248.108 -245.547 0.658303 0.136127 0.324881 0.665251 
24 1 253.096 -250.979 -243.052 0.738432 0.541337 0.256442 0.309694 
27 1 0.426568 0.143225 -248.176 0.407118 0.127056 0.146849 0.892495 
28 1 241.975 1.50617 -243.167 0.247668 0.493582 0.610157 0.568107 
26 1 -253.934 2.78744 -248.152 0.642912 0.240091 0.426486 0.589178 
25 1 496.883 3.81116 -247.371 0.443811 0.832159 0.189555 0.273152 
30 1 -250.573 249.078 -248.611 0.542331 0.820872 -0.0057107 0.178922 
31 1 1.07997 246.814 -248.832 0.108034 0.275916 0.38587 0.873672 
32 1 244.661 244.746 -256.063 0.647746 0.203441 0.664018 0.313235 
29 1 497.642 247.19 -257.718 0.335548 0.530963 0.436793 0.64397 
18 1 -251.1 493.898 -245.666 0.508432 0.549109 0.504575 0.430558 
19 1 0.746944 497.275 -248.259 0.449116 0.74195 0.348363 0.355595 
20 1 244.558 496.101 -246.645 0.423304 0.205561 0.264362 0.841826 
17 1 498.789 499.116 -255.046 0.426707 0.754795 0.0503583 0.495651 
35 1 1.38284 -498.55 1.29527 0.462489 0.347309 0.662655 0.475781 
33 1 -497.54 -496.014 4.39619 0.202827 0.539179 0.743903 0.338756 
34 1 -251.354 495.456 3.97027 0.810394 0.128218 0.559624 0.116797 
3 1 3.24406 -498.783 496.545 0.313086 0.25482 0.726092 0.556627 
7 1 0.400735 -253.106 495.686 0.951653 0.0806484 0.25217 0.155762 
11 1 0.16586 -0.284942 497.023 0.141673 0.59576 0.719136 0.328394 
12 1 252.382 1.46603 496.861 0.671221 0.544794 0.402231 0.301449 
14 1 -248.491 247.329 498.455 0.802108 0.188721 0.362049 0.435806 
15 1 -3.54391 252.969 498.399 0.697831 0.191417 0.127768 0.678283 
16 1 249.624 252.189 498.097 0.439039 0.539013 0.698234 0.170816 
4 1 250.964 499.928 492.06 0.189319 0.617668 0.637894 0.41921 
ITEM: TIMESTEP
20000
ITEM: NUMBER OF ATOMS
35
ITEM: BOX BOUNDS pp pp pp
-5.0000000000000000e+02 5.0000000000000000e+02
-5.0000000000000000e+02 5.0000000000000000e+02
-5.0000000000000000e+02 5.0000000000000000e+02
ITEM: ATOMS id type x y z c_q[1] c_q[2] c_q[3] c_q[4] 
2 1 -253.214 -498.048 -497.755 0.732351 0.325245 0.113129 0.587435 
6 1 -248.875 -253.754 -490.087 0.335847 -0.0328864 0.61375 0.713748 
10 1 -254.543 -2.13804 -499.268 0.341677 0.646549 0.254466 0.632834 
14 1 -249.998 246.375 -497.223 0.800023 0.172914 0.35982 0.447877 
15 1 -3.09169 257.31 -499.013 0.695962 0.152337 0.0907395 0.695842 
1 1 -496.578 496.157 -496.095 0.432706 0.603982 0.490952 0.454904 
17 1 494.335 -499.652 -260.692 0.445326 0.745447 0.0766594 0.490017 
21 1 -494.635 -248.024 -256.919 0.453983 0.252496 0.532107 0.668586 
22 1 -247.992 -251.596 -251.196 0.454998 0.0645786 0.426277 0.779162 
23 1 11.7756 -248.88 -246.774 0.656629 0.160743 0.36248 0.641567 
24 1 254.362 -252.365 -241.064 0.739216 0.552697 0.274552 0.269642 
28 1 237.652 -1.2391 -243.344 0.3171 0.471062 0.57598 0.588044 
26 1 -255.531 3.14763 -246.975 0.64287 0.217934 0.463847 0.569271 
27 1 0.634713 2.00956 -244.588 0.366867 0.164205 0.164579 0.900755 
25 1 494.534 5.41666 -250.781 0.421077 0.834943 0.23584 0.264468 
30 1 -250.515 246.656 -244.467 0.539283 0.816371 -0.00849766 0.206497 
31 1 -1.13944 250.118 -247.898 0.133894 0.276056 0.42322 0.852496 
32 1 244.633 241.046 -255.541 0.614658 0.25203 0.676725 0.317364 
29 1 495.579 249.702 -256.115 0.323527 0.527281 0.452311 0.642433 
18 1 -252.049 491.736 -252.164 0.509674 0.542477 0.540014 0.392856 
19 1 -3.24571 499.493 -247.279 0.451565 0.747029 0.308174 0.378239 
20 1 247.294 499.855 -250.232 0.425688 0.218093 0.269779 0.83573 
33 1 -494.205 -486.729 5.96152 0.216989 0.514903 0.749425 0.35518 
34 1 -248.888 490.979 2.52258 0.816428 0.171949 0.540287 0.109405 
35 1 0.138205 496.461 3.40953 0.496482 0.33922 0.655756 0.45653 
3 1 2.27715 -498.536 496.956 0.292605 0.251407 0.711094 0.587811 
4 1 249.152 -491.793 489.082 0.203407 0.597842 0.626238 0.457205 
5 1 -499.889 -243.912 498.06 0.695988 0.229324 0.561501 0.384355 
7 1 1.73256 -251.321 496.12 0.948941 0.100865 0.263638 0.140824 
8 1 256.608 -247.393 499.596 0.238075 0.951688 0.111585 0.158614 
9 1 -492.688 3.7519 499.754 0.605857 0.544355 0.165635 0.55604 
11 1 4.16719 4.08567 493.28 0.130808 0.591038 0.729757 0.317834 
12 1 256.14 2.52655 498.396 0.671743 0.539711 0.405841 0.304576 
13 1 -494.206 255.209 -499.686 0.609207 0.439648 0.654566 0.084378 
16 1 252.543 257.768 495.934 0.429092 0.532748 0.711811 0.159329 
ITEM: TIMESTEP
30000
ITEM: NUMBER OF ATOMS
35
ITEM: BOX BOUNDS pp pp pp
-5.0000000000000000e+02 5.0000000000000000e+02
-5.0000000000000000e+02 5.0000000000000000e+02
-5.0000000000000000e+02 5.0000000000000000e+02
ITEM: ATOMS id type x y z c_q[1] c_q[2] c_q[3] c_q[4] 
2 1 -250.254 -497.218 -498.747 0.713405 0.360069 0.120479 0.588972 
6 1 -249.197 -254.557 -487.771 0.290735 -0.00472434 0.639303 0.711858 
9 1 -495.102 -5.81788 -496.578 0.629221 0.548984 0.145462 0.530601 
10 1 -256.878 -6.35757 -497.168 0.327571 0.646276 0.248907 0.642705 
12 1 254.938 1.77408 -497.181 0.654943 0.56291 0.401217 0.305299 
14 1 -250.4 244.931 -496.367 0.79423 0.14274 0.358445 0.469406 
1 1 -496.553 492.978 -493.906 0.372986 0.632512 0.48466 0.475305 
19 1 -5.03215 -498.841 -247.226 0.428279 0.740895 0.32009 0.40644 
20 1 243.592 -496.42 -250.866 0.429304 0.166141 0.289015 0.839384 
17 1 495.666 -497.233 -260.447 0.453159 0.750311 0.053554 0.478344 
21 1 -497.531 -245.328 -261.787 0.461821 0.248362 0.53385 0.663357 
22 1 -247 -248.685 -246.498 0.42385 0.0268982 0.46814 0.774902 
23 1 11.5026 -247.955 -246.01 0.620335 0.170028 0.366874 0.672071 
24 1 261.041 -252.852 -238.497 0.779073 0.50455 0.271235 0.254767 
26 1 -258.996 10.1066 -243.699 0.633777 0.213253 0.445447 0.595338 
27 1 -2.48586 7.32121 -242.661 0.357522 0.17013 0.158118 0.904562 
28 1 237.688 1.33834 -245.877 0.284719 0.486186 0.637538 0.525456 
25 1 496.967 1.04347 -248.032 0.413884 0.842093 0.206541 0.277343 
30 1 -251.785 242.363 -246.201 0.572015 0.803882 0.00746279 0.162841 
31 1 -1.83945 247.563 -241.714 0.0789891 0.292391 0.406021 0.862215 
32 1 247.95 241.996 -260.467 0.596461 0.27246 0.690591 0.305097 
29 1 493.619 246.626 -258.997 0.337184 0.521301 0.440882 0.648209 
18 1 -254.006 485.145 -251.055 0.475017 0.571472 0.551769 0.378589 
34 1 -250.587 486.561 -1.26936 0.809368 0.200324 0.549209 0.056251 
33 1 -492.658 -488.506 1.37931 0.211119 0.486543 0.758117 0.379426 
35 1 6.24285 498.035 3.71576 0.478299 0.371747 0.667432 0.433093 
3 1 6.33807 -494.693 494.318 0.284678 0.23386 0.677894 0.636182 
4 1 251.783 -493.724 488.66 0.200922 0.628171 0.609977 0.439272 
5 1 -498.821 -241.285 498.906 0.714032 0.24146 0.545623 0.366265 
7 1 2.10495 -249.52 496.244 0.940561 0.0654132 0.278797 0.182586 
8 1 254.905 -249.17 499.584 0.266265 0.946033 0.108346 0.149616 
11 1 9.8762 3.17648 492.05 0.135064 0.596847 0.729898 0.3046 
13 1 -497.317 256.505 498.026 0.606503 0.450632 0.644962 0.114494 
15 1 -8.52018 257.617 498.177 0.687416 0.161641 0.117841 0.698173 
16 1 253.341 259.749 496.488 0.382396 0.490702 0.75532 0.206099 
ITEM: TIMESTEP
40000
ITEM: NUMBER OF ATOMS
35
ITEM: BOX BOUNDS pp pp pp
-5.0000000000000000e+02 5.0000000000000000e+02
-5.0000000000000000e+02 5.0000000000000000e+02
-5.0000000000000000e+02 5.0000000000000000e+02
ITEM: ATOMS id type x y z c_q[1] c_q[2] c_q[3] c_q[4] 
6 1 -251.6 -254.288 -484.089 0.284482 0.011562 0.657989 0.697128 
8 1 260.598 -246.756 499.6 0.288614 0.941435 0.108463 0.136521 
9 1 -497.819 -4.7602 -494.661 0.617049 0.555056 0.158639 0.534787 
13 1 499.02 260.711 -497.974 0.572406 0.444083 0.669434 0.164316 
14 1 -252.934 246.483 -493.984 0.815722 0.174019 0.313691 0.453777 
19 1 -6.7644 -495.341 -246.416 0.467887 0.702175 0.30226 0.443476 
20 1 242.737 -492.877 -250.842 0.418188 0.142276 0.298742 0.845949 
17 1 495.765 -495.34 -259.855 0.454466 0.780499 0.0659338 0.424188 
21 1 -493.652 -250.283 -257.868 0.443908 0.274734 0.532584 0.666199 
22 1 -247.225 -245.856 -242.837 0.392689 0.0326461 0.454171 0.799036 
23 1 9.12568 -251.72 -240.75 0.616789 0.176732 0.367686 0.67316 
24 1 265.258 -251.576 -238.499 0.777243 0.514572 0.286593 0.2213 
28 1 238.796 -3.44756 -244.435 0.295948 0.499237 0.623233 0.524173 
25 1 493.712 -3.55091 -250.299 0.416601 0.839801 0.216141 0.272877 
26 1 -264.188 8.00105 -238.75 0.607252 0.166073 0.422174 0.652253 
27 1 -1.15313 6.33855 -245.929 0.424015 0.129643 0.1536 0.883069 
30 1 -255.488 238.249 -245.965 0.5733 0.80509 -0.0308819 0.149007 
31 1 2.88301 251.019 -241.806 0.035543 0.296407 0.436773 0.848592 
32 1 246.083 239.452 -264.324 0.614583 0.312221 0.678093 0.254944 
29 1 486.807 251.85 -262.317 0.328658 0.538729 0.436103 0.641537 
18 1 -255.3 486.642 -251.186 0.489471 0.572563 0.558019 0.348146 
33 1 -490.926 -485.963 1.04806 0.182583 0.427422 0.809953 0.357702 
34 1 -247.585 482.756 6.74773 0.805927 0.20985 0.551552 0.0472747 
35 1 3.48587 494.148 6.30162 0.480852 0.35738 0.668409 0.440783 
2 1 -251.478 -499.139 499.09 0.702034 0.395214 0.13876 0.575934 
3 1 -1.81181 -490.494 498.257 0.274648 0.265411 0.679246 0.626698 
4 1 251.724 -492.244 490.022 0.203841 0.665457 0.560841 0.448413 
5 1 -499.649 -242.325 498.911 0.728191 0.197944 0.569653 0.325656 
7 1 0.184065 -252.061 496.477 0.929028 0.0691942 0.280834 0.230763 
10 1 -259.594 -4.35316 497.885 0.314884 0.629155 0.25904 0.661748 
11 1 13.8669 4.13687 489.231 0.145637 0.596312 0.725208 0.311889 
12 1 258.033 5.12721 499.717 0.630281 0.599235 0.378477 0.316888 
15 1 -8.82547 257.26 499.718 0.647567 0.180272 0.111492 0.731935 
16 1 254.76 259.044 498.435 0.336444 0.536681 0.748684 0.195577 
1 1 -498.261 496.321 498.111 0.333318 0.62959 0.51832 0.473139 
ITEM: TIMESTEP
50000
ITEM: NUMBER OF ATOMS
35
ITEM: BOX BOUNDS pp pp pp
-5.0000000000000000e+02 5.0000000000000000e+02
-5.0000000000000000e+02 5.0000000000000000e+02
-5.0000000000000000e+02 5.0000000000000000e+02
ITEM: ATOMS id type x y z c_q[1] c_q[2] c_q[3] c_q[4] 
2 1 -257.463 -495.417 -495.636 0.679071 0.399664 0.110931 0.605661 
6 1 -254.999 -256.984 -479.279 0.311168 0.0313957 0.690906 0.651795 
9 1 494.812 -4.54185 -490.585 0.623008 0.54263 0.149458 0.543209 
12 1 260.627 1.04178 -497.326 0.603767 0.615645 0.419549 0.283593 
13 1 497.444 264.021 500.099 0.534147 0.455826 0.693198 0.162439 
19 1 -8.74015 -498.738 -245.901 0.454214 0.686699 0.333803 0.459031 
20 1 247.001 -495.882 -247.062 0.434908 0.168134 0.310475 0.828367 
17 1 493.88 -492.777 -261.39 0.431211 0.799716 0.0498895 0.414756 
21 1 -493.734 -250.804 -260.872 0.477206 0.306422 0.514828 0.64291 
22 1 -246.339 -246.247 -241.554 0.328162 0.00624555 0.449997 0.830526 
23 1 9.41259 -249.404 -239.193 0.61217 0.17392 0.322942 0.700506 
24 1 268.329 -254.596 -237.589 0.799575 0.514786 0.249387 0.182979 
28 1 239.697 -4.17623 -240.168 0.294089 0.49597 0.63272 0.516905 
25 1 497.125 -5.04933 -251.973 0.418373 0.850473 0.218922 0.231802 
26 1 -268.317 10.513 -235.813 0.596117 0.145495 0.443615 0.653209 
27 1 0.594605 5.20775 -244.644 0.451927 0.155942 0.204627 0.85415 
30 1 -255.757 237.414 -242.371 0.59983 0.785059 -0.0678582 0.138858 
31 1 0.0555245 253.98 -243.11 0.0595596 0.345544 0.478417 0.805089 
32 1 246.803 238.325 -268.451 0.662959 0.302481 0.635215 0.255915 
29 1 485.592 256.793 -262.718 0.341131 0.528363 0.439683 0.641203 
18 1 -256.611 489.846 -252.482 0.45636 0.586961 0.587296 0.319836 
33 1 -486.657 -487.075 3.92544 0.140073 0.427535 0.809363 0.377525 
34 1 -246.306 485.207 11.6281 0.821694 0.241741 0.514895 0.0355417 
35 1 6.57538 489.585 8.4989 0.437327 0.367675 0.694857 0.436731 
3 1 2.89565 -491.028 499.909 0.283943 0.226869 0.669185 0.64815 
4 1 254.325 -492.084 489.291 0.213072 0.636308 0.606495 0.426469 
5 1 -491.381 -247.443 500.107 0.702967 0.186412 0.607227 0.319942 
7 1 -0.795351 -250.126 497.278 0.921839 0.0543221 0.282817 0.259379 
8 1 260.671 -251.11 495.782 0.301541 0.935546 0.118124 0.140975 
10 1 -258.236 1.49182 494.934 0.315382 0.635693 0.248342 0.65936 
11 1 14.4941 9.36711 485.605 0.159477 0.619825 0.726574 0.249948 
14 1 -258.338 246.951 499.118 0.802036 0.216074 0.310344 0.462316 
15 1 -3.74167 260.014 498.131 0.691946 0.215054 0.0893904 0.683353 
16 1 255.914 258.969 497.817 0.357883 0.494683 0.763365 0.210907 
1 1 -498.497 495.339 495.023 0.379274 0.641049 0.507031 0.433735 
ITEM: TIMESTEP
60000
ITEM: NUMBER OF ATOMS
35
ITEM: BOX BOUNDS pp pp pp
-5.0000000000000000e+02 5.0000000000000000e+02
-5.0000000000000000e+02 5.0000000000000000e+02
-5.0000000000000000e+02 5.0000000000000000e+02
ITEM: ATOMS id type x y z c_q[1] c_q[2] c_q[3] c_q[4] 
2 1 -256.073 -492.291 -497.919 0.71458 0.347861 0.107343 0.597366 
5 1 -489.012 -245.991 -495.388 0.714186 0.134591 0.61088 0.314085 
6 1 -248.393 -253.585 -480.996 0.350025 0.0615645 0.676679 0.644824 
9 1 495.16 -5.5279 -489.481 0.615944 0.561526 0.20475 0.513204 
14 1 -259.399 251.253 499.464 0.817746 0.25207 0.309309 0.414825 
20 1 243.927 499.368 -242.346 0.431975 0.215098 0.287313 0.827394 
17 1 494.077 -493.288 -256.694 0.43577 0.781819 0.0253416 0.445221 
21 1 -490.439 -248.78 -256.343 0.482645 0.313888 0.51139 0.637972 
22 1 -251.777 -253.462 -239.585 0.306336 0.0731429 0.48681 0.814754 
23 1 4.94076 -249.538 -243.502 0.601281 0.177393 0.348715 0.6967 
24 1 269.198 -255.607 -237.529 0.806139 0.49276 0.270539 0.184757 
28 1 237.476 -7.58707 -239.173 0.320486 0.542715 0.579884 0.516221 
25 1 498.444 -4.32941 -250.016 0.447605 0.824566 0.168548 0.302211 
26 1 -272.629 11.7369 -234.826 0.597776 0.0619806 0.39131 0.696921 
27 1 0.599998 12.0061 -251.237 0.466438 0.12775 0.184609 0.85559 
30 1 -255.824 236.658 -245.276 0.639175 0.758416 -0.0574874 0.113828 
31 1 0.635788 254.195 -245.371 -0.0167648 0.442391 0.469226 0.764091 
32 1 244.575 237.122 -270.136 0.614707 0.333603 0.680049 0.219951 
29 1 486.246 257.75 -271.961 0.387197 0.522605 0.435421 0.622392 
18 1 -253.055 488.524 -253.297 0.504313 0.597417 0.553219 0.287592 
19 1 -10.5714 498.761 -247.417 0.417315 0.676829 0.371406 0.479384 
33 1 -490.577 -483.652 8.02571 0.0807703 0.441306 0.81267 0.371878 
34 1 -247.021 485.754 14.5964 0.801599 0.236726 0.543524 0.0773448 
35 1 5.14831 490.993 12.1812 0.437411 0.344802 0.713522 0.425054 
3 1 -0.151559 -490.003 496.574 0.252894 0.237157 0.684556 0.641237 
4 1 250.07 -495.059 490.493 0.203492 0.688996 0.57854 0.386222 
7 1 2.98886 -251.051 495.449 0.919686 0.0570597 0.319626 0.22082 
8 1 257.97 -254.145 498.577 0.312738 0.929904 0.147564 0.125293 
10 1 -256.441 -1.6065 492.708 0.288355 0.652291 0.234233 0.660684 
11 1 17.8957 10.5652 490.166 0.129389 0.591541 0.758437 0.241064 
12 1 260.143 2.42886 -499.502 0.556931 0.629327 0.472388 0.265754 
13 1 -498.925 266.313 497.704 0.495382 0.457838 0.727482 0.125507 
15 1 -10.6598 264.639 496.838 0.651888 0.24425 0.098641 0.711094 
16 1 262.692 257.019 494.435 0.350818 0.480632 0.774716 0.213857 
1 1 -499.031 495.11 493.888 0.372544 0.638097 0.511611 0.438518 
ITEM: TIMESTEP
70000
ITEM: NUMBER OF ATOMS
35
ITEM: BOX BOUNDS pp pp pp
-5.0000000000000000e+02 5.0000000000000000e+02
-5.0000000000000000e+02 5.0000000000000000e+02
-5.0000000000000000e+02 5.0000000000000000e+02
ITEM: ATOMS id type x y z c_q[1] c_q[2] c_q[3] c_q[4] 
2 1 -253.758 -497.402 -497.35 0.689817 0.346081 0.118223 0.624823 
3 1 2.88892 -486.585 -497.438 0.206142 0.188175 0.690695 0.667111 
5 1 -485.282 -253.563 -493.361 0.702421 0.171956 0.627743 0.288053 
6 1 -250.703 -260.276 -479.396 0.314283 0.0962565 0.702701 0.631009 
9 1 494.916 -12.5732 -494.786 0.613436 0.552338 0.215422 0.52174 
12 1 263.418 3.2172 -496.15 0.565992 0.615117 0.47851 0.268908 
15 1 -11.5212 272.625 -497.234 0.630626 0.244124 0.0250561 0.736266 
1 1 -498.501 495.328 499.75 0.392669 0.57532 0.532539 0.480853 
20 1 243.355 -499.248 -245.155 0.478905 0.16761 0.283686 0.813683 
17 1 490.901 -492.3 -256.183 0.433886 0.795364 -0.0253736 0.422488 
21 1 -486.412 -251.661 -254.226 0.445541 0.316957 0.530235 0.647983 
22 1 -253.666 -249.186 -238.913 0.278878 0.0817765 0.475623 0.830254 
23 1 5.73126 -250.759 -242.572 0.581644 0.157431 0.321521 0.730432 
24 1 266.373 -248.001 -241.485 0.78574 0.522167 0.25133 0.216304 
25 1 -498.806 -2.46986 -250.28 0.44251 0.816819 0.184157 0.321057 
28 1 241.824 -11.891 -242.323 0.328867 0.55918 0.568067 0.506422 
26 1 -265.746 14.7337 -230.436 0.608619 0.0833934 0.3997 0.680344 
27 1 0.725483 8.00116 -246.707 0.458809 0.150403 0.177624 0.85751 
30 1 -254.775 234.76 -248.786 0.630383 0.764045 -0.088297 0.105149 
31 1 -0.722666 257.367 -244.516 -0.0996438 0.459354 0.458909 0.753968 
32 1 241.961 234.152 -271.096 0.585037 0.344147 0.7061 0.201788 
29 1 487.501 259.983 -275.605 0.387668 0.543485 0.397739 0.629397 
18 1 -252.348 493.908 -256.473 0.545234 0.562109 0.578866 0.227303 
19 1 -12.2565 498.172 -247.17 0.408313 0.694644 0.37967 0.454533 
33 1 -489.704 -482.197 7.63978 0.0510096 0.530073 0.776604 0.336612 
34 1 -245.503 485.493 18.442 0.779817 0.19292 0.594093 0.0414753 
35 1 5.82872 491.942 8.6726 0.412076 0.325723 0.740342 0.419513 
4 1 247.092 -491.325 496.75 0.153785 0.701872 0.573039 0.394147 
7 1 -1.66466 -254.622 495.682 0.900926 0.0852555 0.349832 0.24224 
8 1 262.447 -254.535 498.386 0.292999 0.935242 0.184821 0.0729051 
10 1 -260.298 -0.465545 491.075 0.277555 0.701322 0.223304 0.617452 
11 1 16.7093 12.7409 493.725 0.117033 0.553969 0.792195 0.227701 
13 1 -497.919 264.796 496.585 0.543416 0.489043 0.672991 0.112335 
14 1 -261.557 253.397 499.075 0.804698 0.210744 0.361483 0.421162 
16 1 263.354 256.006 489.406 0.321915 0.486929 0.781844 0.219069 
ITEM: TIMESTEP
80000
ITEM: NUMBER OF ATOMS
35
ITEM: BOX BOUNDS pp pp pp
-5.0000000000000000e+02 5.0000000000000000e+02
-5.0000000000000000e+02 5.0000000000000000e+02
-5.0000000000000000e+02 5.0000000000000000e+02
ITEM: ATOMS id type x y z c_q[1] c_q[2] c_q[3] c_q[4] 
3 1 4.08823 -484.784 -494.799 0.22891 0.150906 0.669938 0.689935 
5 1 -489.651 -246.456 -490.467 0.705733 0.142325 0.628864 0.293624 
6 1 -249.465 -259.213 -478.88 0.291812 0.120083 0.695561 0.645462 
8 1 267.324 -253.953 -499.335 0.306729 0.932505 0.181304 0.0589988 
9 1 496.045 -14.5624 -493.803 0.614395 0.573792 0.183706 0.509445 
12 1 262.129 3.79096 -490.374 0.600858 0.539378 0.503003 0.308268 
13 1 495.222 269.187 -495.455 0.571988 0.496642 0.646162 0.0930095 
1 1 -494.643 492.45 -492.546 0.403892 0.578379 0.57198 0.418555 
20 1 243.048 -499.144 -242.657 0.456552 0.209202 0.266894 0.822534 
17 1 491.787 -491.88 -259.29 0.465102 0.824271 -0.042328 0.320102 
21 1 -490.118 -253.612 -258.885 0.440973 0.316761 0.580405 0.606906 
22 1 -246.708 -251.927 -239.224 0.273589 0.101232 0.502321 0.813987 
23 1 12.5954 -253.303 -241.166 0.617223 0.154458 0.322422 0.700873 
24 1 261.885 -244.945 -239.291 0.792523 0.492779 0.296488 0.202907 
28 1 238.284 -12.1231 -243.99 0.312054 0.556008 0.580114 0.506897 
25 1 498.157 -2.18988 -253.445 0.435243 0.821578 0.174431 0.324263 
26 1 -261.475 10.3767 -226.988 0.592204 0.103758 0.426825 0.675536 
27 1 -7.31197 10.2192 -246.494 0.494702 0.10004 0.160665 0.848203 
30 1 -254.17 234.665 -250.144 0.597248 0.790226 -0.0561406 0.125243 
31 1 -0.468517 258.872 -245.135 -0.095037 0.481681 0.446085 0.748304 
32 1 242.023 234.909 -269.821 0.593977 0.35813 0.685994 0.219879 
29 1 489.787 265.138 -270.535 0.376744 0.571892 0.395496 0.612035 
18 1 -252.875 492.802 -255.945 0.558889 0.580005 0.554417 0.209427 
19 1 -6.99599 497.264 -244.725 0.433596 0.646455 0.383423 0.497069 
33 1 -484.619 -482.244 9.55127 0.0201137 0.510934 0.793695 0.329529 
34 1 -247.685 487.35 16.5166 0.787169 0.207838 0.580606 -0.00806744 
35 1 3.38067 492.052 6.56142 0.40084 0.323419 0.758866 0.39856 
2 1 -253.857 -495.769 -499.092 0.642105 0.341731 0.151659 0.669269 
4 1 242.34 -489.724 496.277 0.207096 0.698416 0.57446 0.373258 
7 1 1.57495 -247.665 494.094 0.917922 0.100425 0.281011 0.26147 
10 1 -259.414 -1.65474 488.311 0.242133 0.707201 0.199212 0.633682 
11 1 17.6647 14.9429 489.422 0.134005 0.54868 0.801927 0.194695 
14 1 -259.253 250.778 497.07 0.814059 0.201085 0.347291 0.419836 
15 1 -12.0891 270.463 498.122 0.674277 0.28943 0.00889794 0.679339 
16 1 263.389 253.686 493.18 0.386309 0.496589 0.753457 0.190965 
ITEM: TIMESTEP
90000
ITEM: NUMBER OF ATOMS
35
ITEM: BOX BOUNDS pp pp pp
-5.0000000000000000e+02 5.0000000000000000e+02
-5.0000000000000000e+02 5.0000000000000000e+02
-5.0000000000000000e+02 5.0000000000000000e+02
ITEM: ATOMS id type x y z c_q[1] c_q[2] c_q[3] c_q[4] 
5 1 -488.402 -251.328 -487.376 0.704263 0.104223 0.613033 0.342552 
6 1 -244.804 -253.706 -478.497 0.304688 0.152875 0.710241 0.615916 
8 1 266.803 -250.692 -497.845 0.298727 0.933146 0.188796 0.0659978 
9 1 493.204 -14.1294 -495.866 0.621966 0.586626 0.205834 0.476088 
12 1 262.162 7.09743 -491.631 0.597885 0.53204 0.519015 0.300149 
13 1 -498.698 263.91 -496.776 0.565593 0.460426 0.674951 0.11204 
15 1 -16.3598 269.546 -499.612 0.66171 0.340574 0.00666575 0.66791 
1 1 -493.093 494.67 -488.092 0.427535 0.560042 0.597586 0.382697 
20 1 243.423 -498.613 -242.272 0.446863 0.250298 0.274748 0.813743 
17 1 492.873 -493.837 -255.395 0.463068 0.823193 -0.00498145 0.328475 
21 1 -487.974 -248.538 -260.691 0.406541 0.286796 0.593524 0.632615 
22 1 -250.241 -248.08 -241.334 0.260806 0.117344 0.449277 0.846381 
23 1 12.9943 -256.174 -235.524 0.642129 0.142013 0.316044 0.683826 
24 1 262.02 -242.533 -242.772 0.803082 0.51103 0.279028 0.126695 
28 1 236.358 -13.5769 -244.479 0.346496 0.52882 0.571356 0.523299 
25 1 498.969 -5.13464 -256.587 0.418891 0.825091 0.194438 0.325499 
26 1 -261.024 6.59529 -222.27 0.585994 0.134346 0.425141 0.676621 
27 1 -6.37606 7.18776 -248.984 0.514596 0.108946 0.194946 0.827839 
30 1 -256.372 230.866 -250.216 0.578158 0.803158 -0.0869427 0.114505 
31 1 -3.55286 257.86 -242.503 -0.11923 0.456127 0.474848 0.743137 
32 1 241.269 239.354 -269.432 0.577585 0.320949 0.703557 0.261523 
29 1 491.251 269.432 -267.945 0.384344 0.57219 0.415745 0.593325 
18 1 -253.316 490.484 -252.531 0.568015 0.588282 0.540605 0.19756 
19 1 -1.94057 492.234 -242.147 0.4504 0.621814 0.40175 0.499083 
33 1 -485.52 -480.727 8.28384 0.0341539 0.504749 0.762051 0.404155 
34 1 -250.341 484.955 13.0186 0.782128 0.215246 0.584738 -0.0050601 
35 1 5.82971 490.949 9.38554 0.387369 0.318817 0.763235 0.407153 
2 1 -255.792 -486.327 498.754 0.665779 0.33311 0.136766 0.653507 
3 1 5.09953 -485.242 499.212 0.264693 0.167043 0.649962 0.69252 
4 1 243.88 -488.317 498.88 0.19731 0.694904 0.590022 0.360625 
7 1 -1.98219 -250.875 495.661 0.900776 0.1451 0.334382 0.236089 
10 1 -261.076 -0.433617 484.803 0.255562 0.703501 0.251538 0.613598 
11 1 15.4458 13.1712 493.463 0.146259 0.579261 0.789857 0.138532 
14 1 -260.232 257.697 492.919 0.794979 0.187439 0.329489 0.473616 
16 1 260.798 245.003 499.012 0.363057 0.542326 0.733858 0.188477 
ITEM: TIMESTEP
100000
ITEM: NUMBER OF ATOMS
35
ITEM: BOX BOUNDS pp pp pp
-5.0000000000000000e+02 5.0000000000000000e+02
-5.0000000000000000e+02 5.0000000000000000e+02
-5.0000000000000000e+02 5.0000000000000000e+02
ITEM: ATOMS id type x y z c_q[1] c_q[2] c_q[3] c_q[4] 
2 1 -254.999 -485.812 -499.894 0.711799 0.273758 0.0635858 0.643705 
3 1 9.94301 -480.091 -496.969 0.256417 0.173055 0.675513 0.669316 
4 1 246.492 -486.283 -493.987 0.153711 0.70525 0.580574 0.376735 
5 1 -490.916 -257.38 -487.801 0.684545 0.0916467 0.629275 0.356388 
6 1 -245.247 -257.097 -479.966 0.356097 0.180705 0.686959 0.607147 
9 1 493.103 -12.769 -488.279 0.640657 0.570194 0.230146 0.459858 
12 1 262.688 7.05439 -490.783 0.577208 0.512137 0.557663 0.305875 
13 1 -497.583 266.781 -493.121 0.528278 0.456976 0.705812 0.118004 
15 1 -16.8948 268.169 -499.678 0.674557 0.339365 -0.0209349 0.65526 
1 1 -497.109 497.241 -485.28 0.46789 0.543065 0.571337 0.399667 
20 1 239.051 -499.676 -245.633 0.471645 0.235501 0.280028 0.802294 
17 1 492.377 -494.061 -258.474 0.472077 0.80139 0.0198965 0.366771 
21 1 -484.754 -250.291 -263.052 0.405893 0.303411 0.579861 0.637929 
22 1 -247.641 -247.362 -241.065 0.211018 0.0925941 0.457755 0.858695 
23 1 9.76578 -255.919 -235.849 0.617535 0.183554 0.356321 0.676752 
24 1 264.685 -239.12 -246.201 0.813151 0.503714 0.273601 0.100995 
25 1 -498.259 -1.07544 -257.073 0.395729 0.824498 0.194554 0.354613 
26 1 -262.019 -0.208476 -219.371 0.612743 0.148828 0.402857 0.663402 
28 1 242.268 -21.4996 -244.531 0.348215 0.502433 0.562829 0.556355 
27 1 -6.07438 8.01993 -242 0.527233 0.102996 0.197785 0.819938 
30 1 -257.312 226.026 -249.429 0.577695 0.798767 -0.0791014 0.148264 
31 1 -8.10962 257.933 -244.701 -0.0477329 0.493011 0.447226 0.744748 
32 1 242.13 237.854 -268.149 0.587065 0.37107 0.674864 0.249441 
29 1 487.309 265.033 -267.511 0.391779 0.595179 0.414626 0.566 
18 1 -250.085 487.592 -253.237 0.562975 0.604624 0.522465 0.210996 
19 1 0.59775 490.197 -244.079 0.453033 0.616606 0.423728 0.484781 
33 1 -488.377 -485.251 10.134 0.0833284 0.467784 0.767759 0.42986 
34 1 -254.893 487.818 10.1778 0.77262 0.192073 0.605046 -0.00928813 
35 1 3.96834 487.193 15.1036 0.359019 0.357754 0.754538 0.416881 
7 1 -1.24693 -246.579 495.722 0.901922 0.133351 0.345745 0.221844 
8 1 270.311 -252.415 499.845 0.265115 0.94196 0.201467 0.0428561 
10 1 -256.866 0.922498 487.858 0.254281 0.712692 0.24813 0.604849 
11 1 17.797 11.0737 492.788 0.149156 0.556169 0.809949 0.111405 
14 1 -260.819 258.458 493.193 0.799576 0.207776 0.328553 0.457778 
16 1 257.022 241.077 495.312 0.354954 0.526197 0.75944 0.142737 
ITEM: TIMESTEP
110000
ITEM: NUMBER OF ATOMS
35
ITEM: BOX BOUNDS pp pp pp
-5.0000000000000000e+02 5.0000000000000000e+02
-5.0000000000000000e+02 5.0000000000000000e+02
-5.0000000000000000e+02 5.0000000000000000e+02
ITEM: ATOMS id type x y z c_q[1] c_q[2] c_q[3] c_q[4] 
3 1 13.23 -479.844 -492.732 0.240236 0.115793 0.696769 0.665876 
4 1 244.636 -484.856 -493.819 0.154252 0.673415 0.607361 0.392213 
5 1 -489.206 -257.662 -484.137 0.668041 0.124136 0.630516 0.37518 
6 1 -245.965 -259.01 -478.363 0.357099 0.154816 0.691905 0.608095 
9 1 493.324 -13.075 -488.235 0.616111 0.57221 0.224742 0.492416 
12 1 267.796 4.3992 -497.018 0.583725 0.489917 0.552331 0.3379 
13 1 -496.138 266.967 -493.051 0.523671 0.422826 0.726149 0.140334 
1 1 499.324 497.477 -483.858 0.451484 0.530155 0.596536 0.399052 
17 1 486.464 -494.471 -264.214 0.465299 0.805603 0.0336734 0.365194 
21 1 -485.566 -251.814 -267.427 0.367383 0.285316 0.597567 0.653098 
22 1 -246.933 -251.165 -239.433 0.258487 0.0637342 0.441093 0.857065 
23 1 11.5849 -258.654 -237.59 0.577671 0.202607 0.35982 0.704114 
24 1 263.487 -240.146 -245.986 0.808928 0.511966 0.257429 0.131362 
28 1 243.823 -24.7547 -241.735 0.329934 0.483894 0.592993 0.552585 
25 1 498.672 -5.87693 -259.094 0.420233 0.820834 0.154056 0.354828 
26 1 -256.508 5.99865 -221.822 0.619375 0.142928 0.386093 0.66849 
27 1 -4.40274 10.0519 -241.253 0.515222 0.139031 0.195898 0.822703 
30 1 -258.436 224.388 -246.777 0.552571 0.817269 -0.0362031 0.159454 
31 1 -7.55596 261.616 -246.548 -0.0842882 0.48092 0.461628 0.740615 
32 1 236.091 235.715 -267.208 0.557784 0.436033 0.666111 0.234624 
29 1 485.849 267.907 -264.574 0.383572 0.602092 0.443041 0.542284 