LAMMPS data file

65 atoms
65 ellipsoids
0 bonds
0 angles
0 dihedrals

1 atom types
0 bond types
0 angle types
0 dihedral types

-500.000000 500.000000 xlo xhi
-500.000000 500.000000 ylo yhi
-500.000000 500.000000 zlo zhi

Masses

1 203166.000000

Atoms

1 1 -500.000000 -500.000000 -500.000000 1 1.000000 3 0.000000
2 1 -300.000000 -500.000000 -500.000000 1 1.000000 4 0.000000
3 1 -100.000000 -500.000000 -500.000000 1 1.000000 5 0.000000
4 1 100.000000 -500.000000 -500.000000 1 1.000000 6 0.000000
5 1 300.000000 -500.000000 -500.000000 1 1.000000 7 0.000000
6 1 -500.000000 -300.000000 -500.000000 1 1.000000 8 0.000000
7 1 -300.000000 -300.000000 -500.000000 1 1.000000 9 0.000000
8 1 -100.000000 -300.000000 -500.000000 1 1.000000 10 0.000000
9 1 100.000000 -300.000000 -500.000000 1 1.000000 11 0.000000
10 1 300.000000 -300.000000 -500.000000 1 1.000000 12 0.000000
11 1 -500.000000 -100.000000 -500.000000 1 1.000000 13 0.000000
12 1 -300.000000 -100.000000 -500.000000 1 1.000000 14 0.000000
13 1 -100.000000 -100.000000 -500.000000 1 1.000000 15 0.000000
14 1 100.000000 -100.000000 -500.000000 1 1.000000 16 0.000000
15 1 300.000000 -100.000000 -500.000000 1 1.000000 17 0.000000
16 1 -500.000000 100.000000 -500.000000 1 1.000000 18 0.000000
17 1 -300.000000 100.000000 -500.000000 1 1.000000 19 0.000000
18 1 -100.000000 100.000000 -500.000000 1 1.000000 20 0.000000
19 1 100.000000 100.000000 -500.000000 1 1.000000 21 0.000000
20 1 300.000000 100.000000 -500.000000 1 1.000000 22 0.000000
21 1 -500.000000 300.000000 -500.000000 1 1.000000 23 0.000000
22 1 -300.000000 300.000000 -500.000000 1 1.000000 24 0.000000
23 1 -100.000000 300.000000 -500.000000 1 1.000000 25 0.000000
24 1 100.000000 300.000000 -500.000000 1 1.000000 26 0.000000
25 1 300.000000 300.000000 -500.000000 1 1.000000 27 0.000000
26 1 -500.000000 -500.000000 -300.000000 1 1.000000 28 0.000000
27 1 -300.000000 -500.000000 -300.000000 1 1.000000 29 0.000000
28 1 -100.000000 -500.000000 -300.000000 1 1.000000 30 0.000000
29 1 100.000000 -500.000000 -300.000000 1 1.000000 31 0.000000
30 1 300.000000 -500.000000 -300.000000 1 1.000000 32 0.000000
31 1 -500.000000 -300.000000 -300.000000 1 1.000000 33 0.000000
32 1 -300.000000 -300.000000 -300.000000 1 1.000000 34 0.000000
33 1 -100.000000 -300.000000 -300.000000 1 1.000000 35 0.000000
34 1 100.000000 -300.000000 -300.000000 1 1.000000 36 0.000000
35 1 300.000000 -300.000000 -300.000000 1 1.000000 37 0.000000
36 1 -500.000000 -100.000000 -300.000000 1 1.000000 38 0.000000
37 1 -300.000000 -100.000000 -300.000000 1 1.000000 39 0.000000
38 1 -100.000000 -100.000000 -300.000000 1 1.000000 40 0.000000
39 1 100.000000 -100.000000 -300.000000 1 1.000000 41 0.000000
40 1 300.000000 -100.000000 -300.000000 1 1.000000 42 0.000000
41 1 -500.000000 100.000000 -300.000000 1 1.000000 43 0.000000
42 1 -300.000000 100.000000 -300.000000 1 1.000000 44 0.000000
43 1 -100.000000 100.000000 -300.000000 1 1.000000 45 0.000000
44 1 100.000000 100.000000 -300.000000 1 1.000000 46 0.000000
45 1 300.000000 100.000000 -300.000000 1 1.000000 47 0.000000
46 1 -500.000000 300.000000 -300.000000 1 1.000000 48 0.000000
47 1 -300.000000 300.000000 -300.000000 1 1.000000 49 0.000000
48 1 -100.000000 300.000000 -300.000000 1 1.000000 50 0.000000
49 1 100.000000 300.000000 -300.000000 1 1.000000 51 0.000000
50 1 300.000000 300.000000 -300.000000 1 1.000000 52 0.000000
51 1 -500.000000 -500.000000 -100.000000 1 1.000000 53 0.000000
52 1 -300.000000 -500.000000 -100.000000 1 1.000000 54 0.000000
53 1 -100.000000 -500.000000 -100.000000 1 1.000000 55 0.000000
54 1 100.000000 -500.000000 -100.000000 1 1.000000 56 0.000000
55 1 300.000000 -500.000000 -100.000000 1 1.000000 57 0.000000
56 1 -500.000000 -300.000000 -100.000000 1 1.000000 58 0.000000
57 1 -300.000000 -300.000000 -100.000000 1 1.000000 59 0.000000
58 1 -100.000000 -300.000000 -100.000000 1 1.000000 60 0.000000
59 1 100.000000 -300.000000 -100.000000 1 1.000000 61 0.000000
60 1 300.000000 -300.000000 -100.000000 1 1.000000 62 0.000000
61 1 -500.000000 -100.000000 -100.000000 1 1.000000 63 0.000000
62 1 -300.000000 -100.000000 -100.000000 1 1.000000 64 0.000000
63 1 -100.000000 -100.000000 -100.000000 1 1.000000 65 0.000000
64 1 100.000000 -100.000000 -100.000000 1 1.000000 66 0.000000
65 1 300.000000 -100.000000 -100.000000 1 1.000000 67 0.000000

Ellipsoids

1 55.000000 110.000000 110.000000 0.652851 0.382087 0.285689 0.588368
2 55.000000 110.000000 110.000000 0.732243 0.033119 0.401595 0.549041
3 55.000000 110.000000 110.000000 0.566376 0.569799 0.397399 0.443421
4 55.000000 110.000000 110.000000 0.421836 0.488249 0.581852 0.495091
5 55.000000 110.000000 110.000000 0.565245 0.465571 0.213775 0.646562
6 55.000000 110.000000 110.000000 0.658000 0.064738 0.576633 0.479937
7 55.000000 110.000000 110.000000 0.805573 0.218711 0.099088 0.541663
8 55.000000 110.000000 110.000000 0.373290 0.647638 0.456945 0.482100
9 55.000000 110.000000 110.000000 0.545842 0.398717 0.560444 0.478523
10 55.000000 110.000000 110.000000 0.765387 0.134663 0.175392 0.604389
11 55.000000 110.000000 110.000000 0.601608 0.436799 0.667885 0.034685
12 55.000000 110.000000 110.000000 0.008298 0.583595 0.515772 0.627158
13 55.000000 110.000000 110.000000 0.042926 0.933166 0.269505 0.233935
14 55.000000 110.000000 110.000000 0.252656 0.024876 0.523811 0.813122
15 55.000000 110.000000 110.000000 0.092479 0.728766 0.224658 0.640215
16 55.000000 110.000000 110.000000 0.512833 0.616529 0.514360 0.303856
17 55.000000 110.000000 110.000000 0.077618 0.006863 0.971543 0.223677
18 55.000000 110.000000 110.000000 0.787349 0.451667 0.419033 0.022126
19 55.000000 110.000000 110.000000 0.431290 0.390535 0.425427 0.693168
20 55.000000 110.000000 110.000000 0.638622 0.213678 0.738826 0.025291
21 55.000000 110.000000 110.000000 0.781472 0.294203 0.483656 0.262339
22 55.000000 110.000000 110.000000 0.530187 0.411736 0.438510 0.597565
23 55.000000 110.000000 110.000000 0.492302 0.334020 0.321607 0.736640
24 55.000000 110.000000 110.000000 0.286867 0.646789 0.399128 0.583154
25 55.000000 110.000000 110.000000 0.088783 0.708894 0.582498 0.387664
26 55.000000 110.000000 110.000000 0.494905 0.736107 0.248107 0.389434
27 55.000000 110.000000 110.000000 0.301450 0.783148 0.249616 0.483217
28 55.000000 110.000000 110.000000 0.240721 0.455330 0.491644 0.702150
29 55.000000 110.000000 110.000000 0.242750 0.248366 0.913899 0.210181
30 55.000000 110.000000 110.000000 0.082074 0.486520 0.790206 0.363507
31 55.000000 110.000000 110.000000 0.603291 0.532370 0.593509 0.019208
32 55.000000 110.000000 110.000000 0.465049 0.094273 0.704278 0.528048
33 55.000000 110.000000 110.000000 0.280983 0.712963 0.371366 0.524233
34 55.000000 110.000000 110.000000 0.748514 0.593043 0.013355 0.296393
35 55.000000 110.000000 110.000000 0.183958 0.867251 0.286194 0.363494
36 55.000000 110.000000 110.000000 0.415626 0.521467 0.550217 0.502581
37 55.000000 110.000000 110.000000 0.483570 0.669616 0.103504 0.554131
38 55.000000 110.000000 110.000000 0.517116 0.680126 0.465078 0.231782
39 55.000000 110.000000 110.000000 0.655801 0.316281 0.633275 0.262399
40 55.000000 110.000000 110.000000 0.221612 0.550417 0.768205 0.240396
41 55.000000 110.000000 110.000000 0.625624 0.726265 0.018362 0.284247
42 55.000000 110.000000 110.000000 0.351491 0.590511 0.719069 0.103399
43 55.000000 110.000000 110.000000 0.622928 0.393412 0.417062 0.532210
44 55.000000 110.000000 110.000000 0.088181 0.102687 0.788028 0.600575
45 55.000000 110.000000 110.000000 0.287342 0.116551 0.609856 0.729333
46 55.000000 110.000000 110.000000 0.637957 0.767136 0.053680 0.040396
47 55.000000 110.000000 110.000000 0.491403 0.637945 0.592872 0.007229
48 55.000000 110.000000 110.000000 0.573631 0.541288 0.614776 0.002107
49 55.000000 110.000000 110.000000 0.331861 0.894394 0.187289 0.234204
50 55.000000 110.000000 110.000000 0.333109 0.750364 0.489234 0.294351
51 55.000000 110.000000 110.000000 0.378773 0.549396 0.530884 0.522357
52 55.000000 110.000000 110.000000 0.699842 0.160617 0.534380 0.445939
53 55.000000 110.000000 110.000000 0.298997 0.319228 0.576027 0.690570
54 55.000000 110.000000 110.000000 0.332120 0.448804 0.665180 0.495789
55 55.000000 110.000000 110.000000 0.493239 0.418038 0.487316 0.586926
56 55.000000 110.000000 110.000000 0.579391 0.733646 0.284521 0.212411
57 55.000000 110.000000 110.000000 0.194458 0.934144 0.270989 0.126985
58 55.000000 110.000000 110.000000 0.524275 0.056857 0.445917 0.723229
59 55.000000 110.000000 110.000000 0.400908 0.581521 0.640001 0.302498
60 55.000000 110.000000 110.000000 0.663257 0.116412 0.518663 0.526809
61 55.000000 110.000000 110.000000 0.320835 0.458166 0.624278 0.545367
62 55.000000 110.000000 110.000000 0.389393 0.893674 0.044381 0.218517
63 55.000000 110.000000 110.000000 0.222606 0.821388 0.068766 0.520614
64 55.000000 110.000000 110.000000 0.549472 0.226255 0.804202 0.012183
65 55.000000 110.000000 110.000000 0.517614 0.516926 0.391137 0.558457




