ITEM: TIMESTEP
0
ITEM: NUMBER OF ATOMS
40
ITEM: BOX BOUNDS
-500.000000 500.000000
-500.000000 500.000000
-500.000000 500.000000
ITEM: ATOMS id type x y z c_q[1] c_q[2] c_q[3] c_q[4]
1 1 -500.000000 -500.000000 -500.000000 0.409679 0.199199 0.036460 0.889468
2 1 -250.000000 -500.000000 -500.000000 0.445551 0.325449 0.074982 0.830629
3 1 0.000000 -500.000000 -500.000000 0.320277 0.303240 0.045399 0.896330
4 1 250.000000 -500.000000 -500.000000 0.212792 0.407542 0.275336 0.844286
5 1 -500.000000 -250.000000 -500.000000 0.563511 0.505251 0.526071 0.387848
6 1 -250.000000 -250.000000 -500.000000 0.154749 0.156150 0.721763 0.656298
7 1 0.000000 -250.000000 -500.000000 0.516107 0.140158 0.737230 0.412894
8 1 250.000000 -250.000000 -500.000000 0.882895 0.010892 0.185276 0.431337
9 1 -500.000000 0.000000 -500.000000 0.102206 0.011473 0.170483 0.979979
10 1 -250.000000 0.000000 -500.000000 0.925152 0.238618 0.283712 0.081628
11 1 0.000000 0.000000 -500.000000 0.827309 0.495181 0.026600 0.263909
12 1 250.000000 0.000000 -500.000000 0.296344 0.786852 0.164381 0.515773
13 1 -500.000000 250.000000 -500.000000 0.247596 0.054892 0.814439 0.521893
14 1 -250.000000 250.000000 -500.000000 0.682103 0.548601 0.351859 0.331614
15 1 0.000000 250.000000 -500.000000 0.007912 0.410456 0.635845 0.653578
16 1 250.000000 250.000000 -500.000000 0.559332 0.219234 0.775765 0.193063
17 1 -500.000000 -500.000000 -250.000000 0.420882 0.468378 0.548807 0.549810
18 1 -250.000000 -500.000000 -250.000000 0.679364 0.368854 0.294626 0.561788
19 1 0.000000 -500.000000 -250.000000 0.704971 0.371173 0.482604 0.363787
20 1 250.000000 -500.000000 -250.000000 0.937199 0.011110 0.327126 0.120515
21 1 -500.000000 -250.000000 -250.000000 0.672275 0.373328 0.136212 0.624594
22 1 -250.000000 -250.000000 -250.000000 0.501286 0.643004 0.561946 0.139551
23 1 0.000000 -250.000000 -250.000000 0.557528 0.452471 0.019080 0.695750
24 1 250.000000 -250.000000 -250.000000 0.818771 0.412222 0.379008 0.126653
25 1 -500.000000 0.000000 -250.000000 0.461231 0.130862 0.553936 0.680659
26 1 -250.000000 0.000000 -250.000000 0.472758 0.647775 0.538905 0.257815
27 1 0.000000 0.000000 -250.000000 0.405506 0.531383 0.253858 0.699109
28 1 250.000000 0.000000 -250.000000 0.014488 0.126931 0.448661 0.884523
29 1 -500.000000 250.000000 -250.000000 0.481789 0.608250 0.293294 0.558471
30 1 -250.000000 250.000000 -250.000000 0.765588 0.615247 0.181892 0.047552
31 1 0.000000 250.000000 -250.000000 0.023016 0.567944 0.528287 0.630732
32 1 250.000000 250.000000 -250.000000 0.579947 0.471751 0.592190 0.300705
33 1 -500.000000 -500.000000 0.000000 0.160659 0.089450 0.777634 0.601227
34 1 -250.000000 -500.000000 0.000000 0.551673 0.661548 0.507151 0.028440
35 1 0.000000 -500.000000 0.000000 0.228989 0.709679 0.642862 0.175067
36 1 250.000000 -500.000000 0.000000 0.076033 0.662222 0.630721 0.397331
37 1 -500.000000 -250.000000 0.000000 0.741884 0.620592 0.205762 0.148780
38 1 -250.000000 -250.000000 0.000000 0.744525 0.391040 0.532303 0.097076
39 1 0.000000 -250.000000 0.000000 0.674458 0.419306 0.161661 0.585793
40 1 250.000000 -250.000000 0.000000 0.976758 0.111322 0.114701 0.142810
