LAMMPS data file

60 atoms
60 ellipsoids
0 bonds
0 angles
0 dihedrals

1 atom types
0 bond types
0 angle types
0 dihedral types

-500.000000 500.000000 xlo xhi
-500.000000 500.000000 ylo yhi
-500.000000 500.000000 zlo zhi

Masses

1 203166.000000

Atoms

1 1 -500.000000 -500.000000 -500.000000 1 1.000000 3 0.000000
2 1 -250.000000 -500.000000 -500.000000 1 1.000000 4 0.000000
3 1 0.000000 -500.000000 -500.000000 1 1.000000 5 0.000000
4 1 250.000000 -500.000000 -500.000000 1 1.000000 6 0.000000
5 1 -500.000000 -250.000000 -500.000000 1 1.000000 7 0.000000
6 1 -250.000000 -250.000000 -500.000000 1 1.000000 8 0.000000
7 1 0.000000 -250.000000 -500.000000 1 1.000000 9 0.000000
8 1 250.000000 -250.000000 -500.000000 1 1.000000 10 0.000000
9 1 -500.000000 0.000000 -500.000000 1 1.000000 11 0.000000
10 1 -250.000000 0.000000 -500.000000 1 1.000000 12 0.000000
11 1 0.000000 0.000000 -500.000000 1 1.000000 13 0.000000
12 1 250.000000 0.000000 -500.000000 1 1.000000 14 0.000000
13 1 -500.000000 250.000000 -500.000000 1 1.000000 15 0.000000
14 1 -250.000000 250.000000 -500.000000 1 1.000000 16 0.000000
15 1 0.000000 250.000000 -500.000000 1 1.000000 17 0.000000
16 1 250.000000 250.000000 -500.000000 1 1.000000 18 0.000000
17 1 -500.000000 -500.000000 -250.000000 1 1.000000 19 0.000000
18 1 -250.000000 -500.000000 -250.000000 1 1.000000 20 0.000000
19 1 0.000000 -500.000000 -250.000000 1 1.000000 21 0.000000
20 1 250.000000 -500.000000 -250.000000 1 1.000000 22 0.000000
21 1 -500.000000 -250.000000 -250.000000 1 1.000000 23 0.000000
22 1 -250.000000 -250.000000 -250.000000 1 1.000000 24 0.000000
23 1 0.000000 -250.000000 -250.000000 1 1.000000 25 0.000000
24 1 250.000000 -250.000000 -250.000000 1 1.000000 26 0.000000
25 1 -500.000000 0.000000 -250.000000 1 1.000000 27 0.000000
26 1 -250.000000 0.000000 -250.000000 1 1.000000 28 0.000000
27 1 0.000000 0.000000 -250.000000 1 1.000000 29 0.000000
28 1 250.000000 0.000000 -250.000000 1 1.000000 30 0.000000
29 1 -500.000000 250.000000 -250.000000 1 1.000000 31 0.000000
30 1 -250.000000 250.000000 -250.000000 1 1.000000 32 0.000000
31 1 0.000000 250.000000 -250.000000 1 1.000000 33 0.000000
32 1 250.000000 250.000000 -250.000000 1 1.000000 34 0.000000
33 1 -500.000000 -500.000000 0.000000 1 1.000000 35 0.000000
34 1 -250.000000 -500.000000 0.000000 1 1.000000 36 0.000000
35 1 0.000000 -500.000000 0.000000 1 1.000000 37 0.000000
36 1 250.000000 -500.000000 0.000000 1 1.000000 38 0.000000
37 1 -500.000000 -250.000000 0.000000 1 1.000000 39 0.000000
38 1 -250.000000 -250.000000 0.000000 1 1.000000 40 0.000000
39 1 0.000000 -250.000000 0.000000 1 1.000000 41 0.000000
40 1 250.000000 -250.000000 0.000000 1 1.000000 42 0.000000
41 1 -500.000000 0.000000 0.000000 1 1.000000 43 0.000000
42 1 -250.000000 0.000000 0.000000 1 1.000000 44 0.000000
43 1 0.000000 0.000000 0.000000 1 1.000000 45 0.000000
44 1 250.000000 0.000000 0.000000 1 1.000000 46 0.000000
45 1 -500.000000 250.000000 0.000000 1 1.000000 47 0.000000
46 1 -250.000000 250.000000 0.000000 1 1.000000 48 0.000000
47 1 0.000000 250.000000 0.000000 1 1.000000 49 0.000000
48 1 250.000000 250.000000 0.000000 1 1.000000 50 0.000000
49 1 -500.000000 -500.000000 250.000000 1 1.000000 51 0.000000
50 1 -250.000000 -500.000000 250.000000 1 1.000000 52 0.000000
51 1 0.000000 -500.000000 250.000000 1 1.000000 53 0.000000
52 1 250.000000 -500.000000 250.000000 1 1.000000 54 0.000000
53 1 -500.000000 -250.000000 250.000000 1 1.000000 55 0.000000
54 1 -250.000000 -250.000000 250.000000 1 1.000000 56 0.000000
55 1 0.000000 -250.000000 250.000000 1 1.000000 57 0.000000
56 1 250.000000 -250.000000 250.000000 1 1.000000 58 0.000000
57 1 -500.000000 0.000000 250.000000 1 1.000000 59 0.000000
58 1 -250.000000 0.000000 250.000000 1 1.000000 60 0.000000
59 1 0.000000 0.000000 250.000000 1 1.000000 61 0.000000
60 1 250.000000 0.000000 250.000000 1 1.000000 62 0.000000

Ellipsoids

1 55.000000 110.000000 110.000000 0.256466 0.749224 0.227862 0.566540
2 55.000000 110.000000 110.000000 0.792615 0.313440 0.098865 0.513560
3 55.000000 110.000000 110.000000 0.444796 0.481663 0.363611 0.661774
4 55.000000 110.000000 110.000000 0.759228 0.040846 0.290625 0.580897
5 55.000000 110.000000 110.000000 0.467632 0.693045 0.286680 0.467785
6 55.000000 110.000000 110.000000 0.690336 0.118931 0.077684 0.709406
7 55.000000 110.000000 110.000000 0.665251 0.632514 0.230451 0.322893
8 55.000000 110.000000 110.000000 0.580222 0.595321 0.499281 0.244241
9 55.000000 110.000000 110.000000 0.189401 0.394967 0.653130 0.617696
10 55.000000 110.000000 110.000000 0.682464 0.700997 0.203629 0.037169
11 55.000000 110.000000 110.000000 0.589816 0.112236 0.202697 0.773585
12 55.000000 110.000000 110.000000 0.140674 0.256344 0.814270 0.501461
13 55.000000 110.000000 110.000000 0.601789 0.444680 0.571210 0.337385
14 55.000000 110.000000 110.000000 0.260293 0.861168 0.371255 0.229797
15 55.000000 110.000000 110.000000 0.639565 0.322788 0.697583 0.011931
16 55.000000 110.000000 110.000000 0.639513 0.133409 0.565630 0.503277
17 55.000000 110.000000 110.000000 0.494177 0.691307 0.424334 0.312769
18 55.000000 110.000000 110.000000 0.291614 0.550470 0.428908 0.654203
19 55.000000 110.000000 110.000000 0.239519 0.693930 0.575586 0.360268
20 55.000000 110.000000 110.000000 0.319724 0.634856 0.066576 0.700216
21 55.000000 110.000000 110.000000 0.570591 0.296393 0.748006 0.164514
22 55.000000 110.000000 110.000000 0.092271 0.164508 0.402027 0.895990
23 55.000000 110.000000 110.000000 0.056633 0.841195 0.294893 0.449691
24 55.000000 110.000000 110.000000 0.698559 0.001729 0.713019 0.060127
25 55.000000 110.000000 110.000000 0.512315 0.315118 0.582392 0.546858
26 55.000000 110.000000 110.000000 0.798094 0.493006 0.284081 0.198213
27 55.000000 110.000000 110.000000 0.522104 0.061468 0.032190 0.850055
28 55.000000 110.000000 110.000000 0.599408 0.588568 0.014644 0.542294
29 55.000000 110.000000 110.000000 0.180488 0.624019 0.183582 0.737782
30 55.000000 110.000000 110.000000 0.333282 0.186732 0.923697 0.028938
31 55.000000 110.000000 110.000000 0.499514 0.502280 0.611655 0.352249
32 55.000000 110.000000 110.000000 0.466684 0.028972 0.627445 0.622638
33 55.000000 110.000000 110.000000 0.107409 0.733425 0.332386 0.583155
34 55.000000 110.000000 110.000000 0.576061 0.145316 0.579905 0.557446
35 55.000000 110.000000 110.000000 0.193873 0.607226 0.043283 0.769296
36 55.000000 110.000000 110.000000 0.499282 0.613542 0.443652 0.421256
37 55.000000 110.000000 110.000000 0.232893 0.898648 0.370192 0.033939
38 55.000000 110.000000 110.000000 0.442221 0.590213 0.276214 0.616275
39 55.000000 110.000000 110.000000 0.397003 0.545533 0.420669 0.606482
40 55.000000 110.000000 110.000000 0.357608 0.642113 0.563476 0.377230
41 55.000000 110.000000 110.000000 0.636962 0.163500 0.751479 0.053161
42 55.000000 110.000000 110.000000 0.271261 0.504984 0.518924 0.634134
43 55.000000 110.000000 110.000000 0.091874 0.423919 0.609344 0.663741
44 55.000000 110.000000 110.000000 0.700422 0.079042 0.706965 0.057988
45 55.000000 110.000000 110.000000 0.401528 0.397305 0.160984 0.809326
46 55.000000 110.000000 110.000000 0.647110 0.462120 0.380854 0.471852
47 55.000000 110.000000 110.000000 0.599912 0.615521 0.365583 0.357196
48 55.000000 110.000000 110.000000 0.153174 0.751372 0.638839 0.062149
49 55.000000 110.000000 110.000000 0.245777 0.520663 0.561392 0.594426
50 55.000000 110.000000 110.000000 0.717696 0.651675 0.110658 0.219059
51 55.000000 110.000000 110.000000 0.171502 0.778000 0.048690 0.602439
52 55.000000 110.000000 110.000000 0.378509 0.107466 0.525971 0.754014
53 55.000000 110.000000 110.000000 0.042217 0.130644 0.845857 0.515438
54 55.000000 110.000000 110.000000 0.608439 0.708442 0.187247 0.304712
55 55.000000 110.000000 110.000000 0.541308 0.571459 0.071349 0.612641
56 55.000000 110.000000 110.000000 0.338614 0.561693 0.062680 0.752272
57 55.000000 110.000000 110.000000 0.712585 0.290593 0.494892 0.403559
58 55.000000 110.000000 110.000000 0.324763 0.324192 0.732143 0.503384
59 55.000000 110.000000 110.000000 0.893777 0.053168 0.009331 0.445251
60 55.000000 110.000000 110.000000 0.446280 0.462392 0.367617 0.672224




