ITEM: TIMESTEP
0
ITEM: NUMBER OF ATOMS
25
ITEM: BOX BOUNDS
-500.000000 500.000000
-500.000000 500.000000
-500.000000 500.000000
ITEM: ATOMS id type x y z c_q[1] c_q[2] c_q[3] c_q[4]
1 1 -500.000000 -500.000000 -500.000000 0.173049 0.145003 0.518254 0.824888
2 1 -166.666667 -500.000000 -500.000000 0.185343 0.710591 0.419762 0.533393
3 1 166.666667 -500.000000 -500.000000 0.551839 0.269203 0.553463 0.562745
4 1 -500.000000 -166.666667 -500.000000 0.300148 0.389706 0.344073 0.799784
5 1 -166.666667 -166.666667 -500.000000 0.835257 0.307046 0.142759 0.433230
6 1 166.666667 -166.666667 -500.000000 0.220551 0.753924 0.237003 0.571652
7 1 -500.000000 166.666667 -500.000000 0.436795 0.586251 0.257171 0.631968
8 1 -166.666667 166.666667 -500.000000 0.875419 0.091685 0.112582 0.461043
9 1 166.666667 166.666667 -500.000000 0.532487 0.307953 0.354701 0.704138
10 1 -500.000000 -500.000000 -166.666667 0.047798 0.765403 0.044516 0.640228
11 1 -166.666667 -500.000000 -166.666667 0.621627 0.030728 0.755532 0.204468
12 1 166.666667 -500.000000 -166.666667 0.894473 0.428889 0.115371 0.051604
13 1 -500.000000 -166.666667 -166.666667 0.855719 0.118735 0.353093 0.359127
14 1 -166.666667 -166.666667 -166.666667 0.559678 0.414051 0.302567 0.650980
15 1 166.666667 -166.666667 -166.666667 0.747428 0.239330 0.029058 0.619054
16 1 -500.000000 166.666667 -166.666667 0.458530 0.168143 0.695053 0.527617
17 1 -166.666667 166.666667 -166.666667 0.545584 0.561364 0.058011 0.619551
18 1 166.666667 166.666667 -166.666667 0.131229 0.082441 0.278394 0.947882
19 1 -500.000000 -500.000000 166.666667 0.251337 0.192078 0.817145 0.481881
20 1 -166.666667 -500.000000 166.666667 0.665554 0.211967 0.715467 0.014686
21 1 166.666667 -500.000000 166.666667 0.202541 0.000985 0.918847 0.338669
22 1 -500.000000 -166.666667 166.666667 0.633836 0.464195 0.601380 0.145314
23 1 -166.666667 -166.666667 166.666667 0.170889 0.503495 0.579579 0.617558
24 1 166.666667 -166.666667 166.666667 0.206492 0.660517 0.472910 0.545375
25 1 -500.000000 166.666667 166.666667 0.399025 0.154798 0.160444 0.889424
