ITEM: TIMESTEP
0
ITEM: NUMBER OF ATOMS
25
ITEM: BOX BOUNDS pp pp pp
-5.0000000000000000e+02 5.0000000000000000e+02
-5.0000000000000000e+02 5.0000000000000000e+02
-5.0000000000000000e+02 5.0000000000000000e+02
ITEM: ATOMS id type x y z c_q[1] c_q[2] c_q[3] c_q[4] 
1 1 -500 -500 -500 0.173049 0.145003 0.518254 0.824888 
2 1 -166.667 -500 -500 0.185343 0.710591 0.419762 0.533393 
3 1 166.667 -500 -500 0.551839 0.269203 0.553463 0.562745 
4 1 -500 -166.667 -500 0.300148 0.389706 0.344073 0.799784 
5 1 -166.667 -166.667 -500 0.835257 0.307046 0.142759 0.43323 
6 1 166.667 -166.667 -500 0.220551 0.753924 0.237003 0.571652 
7 1 -500 166.667 -500 0.436795 0.586251 0.257171 0.631968 
8 1 -166.667 166.667 -500 0.875419 0.091685 0.112582 0.461043 
9 1 166.667 166.667 -500 0.532487 0.307953 0.354701 0.704138 
10 1 -500 -500 -166.667 0.047798 0.765403 0.044516 0.640228 
11 1 -166.667 -500 -166.667 0.621627 0.030728 0.755532 0.204468 
12 1 166.667 -500 -166.667 0.894472 0.428889 0.115371 0.051604 
13 1 -500 -166.667 -166.667 0.855719 0.118735 0.353093 0.359127 
14 1 -166.667 -166.667 -166.667 0.559678 0.414051 0.302567 0.65098 
15 1 166.667 -166.667 -166.667 0.747428 0.23933 0.029058 0.619054 
16 1 -500 166.667 -166.667 0.45853 0.168143 0.695053 0.527617 
17 1 -166.667 166.667 -166.667 0.545584 0.561364 0.058011 0.619551 
18 1 166.667 166.667 -166.667 0.131229 0.082441 0.278394 0.947881 
19 1 -500 -500 166.667 0.251337 0.192078 0.817145 0.481881 
20 1 -166.667 -500 166.667 0.665554 0.211967 0.715467 0.014686 
21 1 166.667 -500 166.667 0.202541 0.000985 0.918847 0.338669 
22 1 -500 -166.667 166.667 0.633836 0.464195 0.60138 0.145314 
23 1 -166.667 -166.667 166.667 0.170889 0.503495 0.579579 0.617558 
24 1 166.667 -166.667 166.667 0.206492 0.660517 0.47291 0.545375 
25 1 -500 166.667 166.667 0.399025 0.154798 0.160444 0.889424 
ITEM: TIMESTEP
10000
ITEM: NUMBER OF ATOMS
25
ITEM: BOX BOUNDS pp pp pp
-5.0000000000000000e+02 5.0000000000000000e+02
-5.0000000000000000e+02 5.0000000000000000e+02
-5.0000000000000000e+02 5.0000000000000000e+02
ITEM: ATOMS id type x y z c_q[1] c_q[2] c_q[3] c_q[4] 
9 1 172.354 170.559 -498.062 0.508491 0.290174 0.344855 0.733697 
7 1 499.48 167.624 -498.428 0.432561 0.581959 0.268432 0.63416 
2 1 -165.61 495.447 -499.598 0.193799 0.693922 0.436492 0.538877 
13 1 -497.335 -165.067 -168.552 0.836963 0.139617 0.342315 0.403511 
17 1 -167.396 164.113 -168.182 0.540845 0.550639 0.0805521 0.63071 
16 1 -499.404 161.088 -170.446 0.500535 0.159231 0.646652 0.553129 
18 1 162.8 169.711 -165.482 0.177114 0.0427652 0.276279 0.943648 
12 1 169.193 494.389 -167.148 0.903073 0.404969 0.121845 0.0749236 
10 1 498.609 -497.577 -161.878 0.0324982 0.743798 0.0846179 0.66223 
14 1 -168.275 -165.819 -162.78 0.541997 0.428872 0.305747 0.654849 
15 1 167.452 -165.213 -159.285 0.735569 0.251246 0.0536228 0.626848 
11 1 -169.25 -499.834 -165.643 0.579738 0.0565969 0.788655 0.196784 
23 1 -168.467 -168.054 166.149 0.167792 0.479191 0.554443 0.659405 
20 1 -170.189 497.563 164.254 0.664043 0.237476 0.708972 -0.00345555 
21 1 164.974 -496.419 169.686 0.184698 0.0322458 0.931454 0.311833 
22 1 -499.486 -170.153 168.29 0.624149 0.485836 0.59721 0.133198 
24 1 171.817 -165.159 171.395 0.198125 0.653919 0.475743 0.553899 
25 1 499.13 168.854 174.552 0.320429 0.129707 0.167828 0.92322 
19 1 -499.71 494.618 167.891 0.257434 0.219139 0.798036 0.498842 
4 1 493.633 -174.541 495.637 0.33468 0.343543 0.282323 0.83082 
5 1 -168.16 -167.041 496.186 0.844403 0.263092 0.127306 0.448953 
6 1 168.06 -161.686 497.052 0.212438 0.762601 0.212648 0.572792 
8 1 -167.84 165.275 499.476 0.886804 0.0786161 0.0752125 0.449156 
3 1 166.908 497.938 497.907 0.57675 0.259869 0.513913 0.579415 
1 1 496.601 497.41 496.108 0.187003 0.115771 0.54758 0.807331 
ITEM: TIMESTEP
20000
ITEM: NUMBER OF ATOMS
25
ITEM: BOX BOUNDS pp pp pp
-5.0000000000000000e+02 5.0000000000000000e+02
-5.0000000000000000e+02 5.0000000000000000e+02
-5.0000000000000000e+02 5.0000000000000000e+02
ITEM: ATOMS id type x y z c_q[1] c_q[2] c_q[3] c_q[4] 
6 1 165.037 -168.595 -494.664 0.20671 0.771122 0.224985 0.55859 
7 1 497.497 170.175 -500.011 0.390427 0.5771 0.248638 0.67283 
11 1 -173.358 -498.393 -168.108 0.566997 0.0160754 0.804166 0.177688 
13 1 498.97 -173.153 -167.376 0.824479 0.138444 0.335807 0.433936 
16 1 499.416 165.446 -171.282 0.476948 0.126308 0.66588 0.559616 
18 1 166.091 174.082 -168.41 0.192477 0.0403789 0.261323 0.945004 
12 1 171.309 491.437 -170.933 0.89631 0.413565 0.149459 0.0570458 
10 1 498.71 -495.41 -162.617 0.0752584 0.755501 0.104957 0.642292 
15 1 162.873 -169.486 -158.924 0.725763 0.256279 0.0392631 0.637219 
14 1 -164.513 -160.759 -162.192 0.529034 0.440221 0.304605 0.658441 
17 1 -167.656 162.802 -163.053 0.556627 0.565535 0.0459616 0.606815 
23 1 -166.831 -169.439 163.736 0.155809 0.472965 0.554258 0.666952 
19 1 -499.999 493.65 167 0.238499 0.252402 0.808596 0.474958 
21 1 165.991 -494.865 167.4 0.198042 0.00618752 0.925 0.324218 
22 1 -494.086 -173.871 169.393 0.634718 0.527889 0.553034 0.112338 
24 1 170.624 -163.188 174.385 0.207903 0.651721 0.448871 0.574935 
25 1 -496.865 168.457 176.557 0.337784 0.0356319 0.142943 0.929623 
20 1 -170.03 -499.356 170.221 0.66974 0.231575 0.705516 0.00832966 
1 1 -499.029 -498.049 499.678 0.193028 0.0677549 0.527404 0.824617 
2 1 -166.395 -497.307 496.342 0.221499 0.730937 0.401831 0.505174 
5 1 -168.81 -165.268 497.446 0.854172 0.275032 0.144666 0.416918 
4 1 493.336 -176.176 493.371 0.284571 0.356092 0.270756 0.847885 
8 1 -171.019 166.477 498.813 0.914871 0.072333 0.0687441 0.39122 
9 1 173.149 175.052 495.344 0.51929 0.327942 0.34706 0.70876 
3 1 160.501 491.668 491.907 0.604042 0.246361 0.49235 0.576221 
ITEM: TIMESTEP
30000
ITEM: NUMBER OF ATOMS
25
ITEM: BOX BOUNDS pp pp pp
-5.0000000000000000e+02 5.0000000000000000e+02
-5.0000000000000000e+02 5.0000000000000000e+02
-5.0000000000000000e+02 5.0000000000000000e+02
ITEM: ATOMS id type x y z c_q[1] c_q[2] c_q[3] c_q[4] 
2 1 -165.142 -496.311 -497.393 0.214732 0.708602 0.373491 0.558818 
6 1 157.653 -169.147 -492.077 0.201601 0.771431 0.220326 0.561878 
8 1 -170.393 159.815 -496.379 0.923096 0.0970721 0.0256201 0.371233 
1 1 497.709 496.793 -495.956 0.169346 0.105615 0.540998 0.817 
13 1 499.222 -171.526 -167.401 0.819966 0.121515 0.324385 0.455701 
18 1 161.759 176.791 -173.225 0.190422 0.0732901 0.271076 0.940684 
16 1 494.303 167.777 -177.155 0.451709 0.0987858 0.687158 0.56037 
12 1 174.846 485.911 -172.434 0.893955 0.422108 0.148341 0.02578 
10 1 -497.543 -497.934 -160.523 0.0978306 0.75339 0.107681 0.641278 
11 1 -173.03 -499.729 -163.997 0.54664 -0.0319465 0.810228 0.209033 
14 1 -165.393 -169.58 -158.281 0.511529 0.405599 0.333181 0.680307 
15 1 161.596 -163.142 -155.138 0.725594 0.244442 0.0342138 0.642332 
17 1 -172.611 160.591 -158.149 0.56837 0.522602 0.024628 0.635009 
23 1 -161.806 -174.556 166.677 0.123278 0.497399 0.53804 0.669261 
19 1 -496.989 498.536 162.64 0.242842 0.300456 0.801515 0.456429 
20 1 -164.202 -495.547 168.63 0.69832 0.206992 0.685104 -0.0116691 
21 1 169.264 -487.597 168.28 0.158271 -0.023136 0.934668 0.317507 
22 1 -494.343 -173.85 172.458 0.651606 0.54979 0.510248 0.113085 
24 1 175.465 -161.615 170.808 0.264347 0.598703 0.433441 0.619519 
25 1 -495.859 172.169 176.826 0.282173 0.0380171 0.138889 0.948495 
4 1 490.397 -178.521 491.713 0.317352 0.384825 0.234923 0.834271 
5 1 -172.855 -163.224 497.283 0.860025 0.284708 0.179894 0.383322 
9 1 167.161 174.223 497.968 0.484057 0.316467 0.367061 0.728562 
7 1 492.296 171.974 496.758 0.337664 0.594334 0.287127 0.67105 
3 1 161.403 499.015 493.049 0.584341 0.273664 0.523208 0.556693 
ITEM: TIMESTEP
40000
ITEM: NUMBER OF ATOMS
25
ITEM: BOX BOUNDS pp pp pp
-5.0000000000000000e+02 5.0000000000000000e+02
-5.0000000000000000e+02 5.0000000000000000e+02
-5.0000000000000000e+02 5.0000000000000000e+02
ITEM: ATOMS id type x y z c_q[1] c_q[2] c_q[3] c_q[4] 
2 1 -164.909 -495.938 -499.21 0.208677 0.712585 0.348994 0.571734 
6 1 153.827 -166.281 -492.681 0.241346 0.733699 0.19913 0.603146 
8 1 -172.043 161.914 -495.545 0.933027 0.102468 0.0182058 0.344428 
1 1 498.778 498.045 -488.863 0.186384 0.0694596 0.527077 0.826212 
13 1 -499.429 -169.8 -174.257 0.819219 0.10936 0.289273 0.482951 
18 1 157.376 180.568 -174.138 0.171317 0.0899577 0.297378 0.934946 
16 1 492.97 168.745 -176.67 0.401823 0.176719 0.711498 0.548707 
12 1 177.713 484.863 -166.645 0.888538 0.445388 0.110052 -0.00434806 
10 1 498.404 -499.166 -153.018 0.0743071 0.752192 0.103651 0.646485 
14 1 -163.46 -174.947 -157.635 0.504623 0.383019 0.382304 0.672678 
15 1 160.814 -160.877 -154.465 0.718185 0.272568 0.0793859 0.635307 
17 1 -175.366 161.525 -162.108 0.565691 0.519469 -0.00288199 0.64042 
11 1 -172.342 496.492 -163.906 0.539392 -0.0621231 0.807534 0.230403 
21 1 178.192 -490.797 162.885 0.0931779 -0.00294031 0.946664 0.308441 
22 1 -495.661 -178.195 163.959 0.65301 0.58956 0.465678 0.0956085 
23 1 -162.21 -168.671 162.903 0.118378 0.459205 0.530336 0.702752 
19 1 -495.329 499.071 160.36 0.264121 0.291628 0.784248 0.479738 
20 1 -163.296 -495.147 169.662 0.684225 0.215829 0.696503 0.0117097 
24 1 175.723 -159.54 172.414 0.238683 0.630058 0.413316 0.612557 
25 1 -496.36 167.638 175.669 0.268758 0.0383604 0.14726 0.951111 
3 1 163.752 -497.151 491.298 0.569539 0.221761 0.527353 0.590208 
4 1 498.192 -180.8 487.235 0.331075 0.37808 0.209582 0.838761 
5 1 -169.935 -165.04 498.928 0.853429 0.306358 0.175492 0.383414 
7 1 492.915 166.394 496.406 0.307909 0.591301 0.28532 0.688584 
9 1 171.907 175.992 493.732 0.492186 0.324929 0.362571 0.721607 
ITEM: TIMESTEP
50000
ITEM: NUMBER OF ATOMS
25
ITEM: BOX BOUNDS pp pp pp
-5.0000000000000000e+02 5.0000000000000000e+02
-5.0000000000000000e+02 5.0000000000000000e+02
-5.0000000000000000e+02 5.0000000000000000e+02
ITEM: ATOMS id type x y z c_q[1] c_q[2] c_q[3] c_q[4] 
2 1 -160.324 -496.288 -498.425 0.222528 0.701428 0.361402 0.572598 
5 1 -171.401 -155.654 -498.18 0.811529 0.33882 0.164932 0.446564 
6 1 153.789 -165.836 -495.67 0.228951 0.705735 0.232913 0.628706 
8 1 -169.333 163.201 -494.539 0.924081 0.0803918 0.00276051 0.373636 
1 1 495.668 496.594 -485.314 0.157977 0.0528231 0.52873 0.832284 
13 1 -496.759 -163.697 -174.82 0.798616 0.103098 0.348876 0.479447 
18 1 161.036 178.547 -175.276 0.168794 0.146339 0.312607 0.923239 
16 1 494.743 173.216 -182.052 0.314269 0.185771 0.752292 0.548435 
14 1 -159.86 -177.262 -157.853 0.519569 0.363059 0.41668 0.651624 
15 1 160.976 -153.506 -152.549 0.721463 0.276642 0.0914697 0.628167 
17 1 -181.533 159.257 -161.128 0.632193 0.471376 -0.0628404 0.611709 
11 1 -175.158 498.012 -166.789 0.568198 -0.0174546 0.799125 0.195563 
12 1 184.893 486.452 -165.37 0.87523 0.464741 0.134026 0.00499824 
10 1 498.417 495.365 -155.378 0.0532774 0.718283 0.140867 0.679255 
19 1 -493.359 -494.172 162.599 0.26889 0.296957 0.790638 0.46304 
20 1 -171.866 -495.195 165.558 0.691954 0.203781 0.692574 -0.00377051 
21 1 176.256 -491.907 162.991 0.114596 0.0103102 0.947908 0.297037 
22 1 -493.897 -181.716 165.753 0.665437 0.59436 0.445019 0.0767331 
23 1 -157.917 -170.889 163.883 0.158256 0.421728 0.506892 0.734956 
24 1 173.36 -157.445 171.296 0.22052 0.632936 0.449754 0.590325 
25 1 -496.471 164.544 173.28 0.232267 0.079662 0.188339 0.950912 
4 1 498.89 -177.825 481.937 0.327868 0.349645 0.195586 0.855569 
7 1 494.111 166.182 498.135 0.310559 0.606694 0.277918 0.676932 
9 1 175.158 178.542 497.253 0.519265 0.336147 0.33163 0.712313 
3 1 170.244 497.136 487.898 0.623624 0.204117 0.476067 0.585482 
ITEM: TIMESTEP
60000
ITEM: NUMBER OF ATOMS
25
ITEM: BOX BOUNDS pp pp pp
-5.0000000000000000e+02 5.0000000000000000e+02
-5.0000000000000000e+02 5.0000000000000000e+02
-5.0000000000000000e+02 5.0000000000000000e+02
ITEM: ATOMS id type x y z c_q[1] c_q[2] c_q[3] c_q[4] 
6 1 148.267 -172.098 -494.319 0.231086 0.715119 0.252428 0.609495 
5 1 -173.443 -157.931 -492.444 0.830959 0.333783 0.188504 0.403191 
8 1 -164.364 162.017 -494.075 0.926698 0.0942596 0.0183599 0.363331 
7 1 -499.21 165.763 -499.417 0.335704 0.617457 0.241219 0.669226 
1 1 -498.944 499.335 -488.557 0.197077 0.103216 0.547217 0.806883 
13 1 -495.38 -165.394 -173.677 0.796524 0.114037 0.365063 0.468268 
18 1 159.686 180.697 -175.901 0.197068 0.0541356 0.300894 0.931502 
16 1 493.335 169.997 -179.611 0.355623 0.16094 0.743178 0.54343 
11 1 -176.155 496.909 -169.934 0.602151 -0.00669361 0.777326 0.182027 
12 1 184.087 488.123 -168.365 0.882796 0.449634 0.129388 -0.0419389 
14 1 -163.414 -174.653 -156.324 0.561301 0.394276 0.390551 0.613969 
15 1 160.76 -153.968 -157.974 0.725448 0.280667 0.0907457 0.621865 
17 1 -183.402 157.085 -156.807 0.643172 0.431066 -0.0674189 0.629259 
10 1 493.403 496.519 -156.951 0.111208 0.746928 0.115837 0.645224 
19 1 -497.085 -493.229 164.923 0.219072 0.274018 0.831578 0.430581 
20 1 -165.87 -494.472 167.593 0.71414 0.197094 0.671005 0.0301663 
22 1 -493.382 -177.003 162.212 0.672405 0.573953 0.45537 0.105299 
23 1 -157.344 -170.034 162.483 0.178506 0.43069 0.514221 0.719874 
21 1 179.089 -491.325 169.967 0.120695 -0.0380872 0.95244 0.277201 
24 1 176.385 -159.077 175.087 0.174247 0.596905 0.491289 0.6099 
25 1 495.24 159.891 168.033 0.233278 0.102525 0.194719 0.947182 
2 1 -163.636 -494.896 499.148 0.248692 0.664776 0.333008 0.62075 
4 1 489.536 -170.544 476.579 0.289388 0.372781 0.153483 0.868177 
9 1 179.43 177.263 497.558 0.513335 0.385901 0.310381 0.700879 
3 1 170.071 498.841 482.194 0.64997 0.21587 0.476065 0.551636 
ITEM: TIMESTEP
70000
ITEM: NUMBER OF ATOMS
25
ITEM: BOX BOUNDS pp pp pp
-5.0000000000000000e+02 5.0000000000000000e+02
-5.0000000000000000e+02 5.0000000000000000e+02
-5.0000000000000000e+02 5.0000000000000000e+02
ITEM: ATOMS id type x y z c_q[1] c_q[2] c_q[3] c_q[4] 
2 1 -162.787 -494.412 -496.042 0.273369 0.642905 0.318363 0.640771 
6 1 151.443 -171.837 -494.364 0.189856 0.746404 0.216665 0.59991 
5 1 -174.308 -158.599 -491.117 0.829732 0.320852 0.20989 0.405642 
8 1 -163.059 159.019 -497.137 0.919259 0.0721867 0.0500329 0.383731 
9 1 183.225 181.939 -498.044 0.536548 0.388421 0.305566 0.684014 
1 1 498.741 494.585 -483.16 0.164967 0.0705016 0.539195 0.822851 
11 1 -173.338 -496.832 -171.206 0.603499 0.00773435 0.771755 0.200311 
13 1 499.363 -165.456 -171.897 0.772805 0.164958 0.380889 0.480088 
16 1 495.257 166.41 -176.512 0.339459 0.136653 0.776845 0.51245 
18 1 158.707 180.812 -176.561 0.237743 0.024 0.262499 0.934878 
12 1 185.797 489.732 -167.923 0.870036 0.453491 0.189109 -0.0402624 
14 1 -167.039 -164.208 -157.889 0.56367 0.409812 0.382838 0.606437 
15 1 157.458 -150.611 -165.161 0.737871 0.303123 0.0737681 0.598516 
17 1 -178.837 154.931 -158.005 0.648983 0.396005 -0.0849255 0.644041 
10 1 491.595 493.587 -157.542 0.0822447 0.74735 0.114033 0.649385 
19 1 -495.347 -495.229 164.469 0.224746 0.298463 0.848682 0.374364 
22 1 -492.891 -173.213 164.884 0.624739 0.571521 0.520999 0.107815 
23 1 -156.501 -171.743 161.21 0.15296 0.489358 0.518977 0.683956 
25 1 489.279 164.568 163.763 0.253447 0.0615009 0.221757 0.939578 
20 1 -163.826 -492.778 170.999 0.698045 0.236488 0.67579 -0.0107506 
21 1 185.143 -487.838 169.553 0.0676804 -0.0138068 0.964354 0.25544 
24 1 174.24 -157.222 176.331 0.173512 0.581424 0.511433 0.608503 
3 1 169.969 -497.979 478.536 0.644498 0.237157 0.463087 0.560295 
4 1 484.524 -168.913 478.318 0.313508 0.378724 0.159717 0.856021 
7 1 497.617 161.463 498.53 0.357115 0.592507 0.210411 0.690747 
ITEM: TIMESTEP
80000
ITEM: NUMBER OF ATOMS
25
ITEM: BOX BOUNDS pp pp pp
-5.0000000000000000e+02 5.0000000000000000e+02
-5.0000000000000000e+02 5.0000000000000000e+02
-5.0000000000000000e+02 5.0000000000000000e+02
ITEM: ATOMS id type x y z c_q[1] c_q[2] c_q[3] c_q[4] 
2 1 -163.199 -497.502 -490.612 0.284851 0.63049 0.32787 0.643307 
6 1 155.243 -171.582 -498.125 0.200954 0.768661 0.200281 0.573294 
5 1 -174.307 -158.593 -493.936 0.8503 0.358298 0.184933 0.338248 
8 1 -163.988 159.487 -493.105 0.922591 0.10657 0.0605105 0.365796 
9 1 181.36 181.958 -497.667 0.525325 0.406114 0.299296 0.68522 
1 1 496.201 490.794 -486.716 0.15217 0.0923664 0.556365 0.811647 
11 1 -171.231 -499.207 -167.849 0.569462 0.0217214 0.795073 0.207607 
13 1 499.98 -167.691 -176.779 0.798129 0.144627 0.333045 0.480785 
18 1 159.012 180.865 -179.721 0.259117 0.0756123 0.252948 0.929063 
16 1 491.549 172.341 -171.097 0.31196 0.21813 0.784441 0.489646 
12 1 186.647 488.079 -167.863 0.857041 0.463166 0.220819 -0.0468797 
14 1 -165.204 -163.982 -159.95 0.558541 0.381721 0.396423 0.62062 
15 1 156.606 -148.774 -164.772 0.738337 0.305701 0.0991606 0.592936 
17 1 -174.462 152.241 -154.853 0.642748 0.427878 -0.0998152 0.62756 
10 1 484.242 490.976 -164.559 0.140367 0.735198 0.127707 0.650748 
23 1 -155.982 -168.923 165.108 0.18023 0.483183 0.485345 0.706039 
25 1 490.562 163.651 164.367 0.246029 0.0775507 0.205952 0.943949 
19 1 -493.432 -496.798 168.521 0.172501 0.291812 0.848748 0.405852 
20 1 -161.808 -492.39 166.276 0.705051 0.217761 0.673577 -0.0421646 
21 1 183.22 -483.395 170.185 0.0493735 0.0173443 0.959823 0.275683 
22 1 -496.218 -174.672 169.897 0.599067 0.603487 0.509689 0.130913 
24 1 174.447 -155.443 174.687 0.142105 0.587816 0.547312 0.578557 
3 1 168.785 -493.151 477.414 0.655308 0.233536 0.467585 0.54534 
4 1 490.785 -165.794 480.926 0.320885 0.376657 0.142097 0.857305 
7 1 -498.973 163.66 -499.078 0.370725 0.566001 0.247255 0.693593 
ITEM: TIMESTEP
90000
ITEM: NUMBER OF ATOMS
25
ITEM: BOX BOUNDS pp pp pp
-5.0000000000000000e+02 5.0000000000000000e+02
-5.0000000000000000e+02 5.0000000000000000e+02
-5.0000000000000000e+02 5.0000000000000000e+02
ITEM: ATOMS id type x y z c_q[1] c_q[2] c_q[3] c_q[4] 
2 1 -163.715 -494.371 -494.273 0.174667 0.634894 0.377679 0.650968 
6 1 151.746 -169.662 -499.856 0.228323 0.743962 0.22015 0.588153 
5 1 -171.964 -155.713 -487.69 0.830435 0.364613 0.197968 0.371812 
8 1 -156.74 163.912 -493.568 0.921021 0.119858 0.0820762 0.361411 
9 1 182.654 178.046 -498.149 0.507413 0.406977 0.310893 0.692999 
1 1 497.751 487.606 -487.171 0.141136 0.0999731 0.566856 0.805457 
13 1 492.443 -168.979 -181.549 0.760038 0.114311 0.351982 0.534214 
18 1 158.653 180.583 -174.479 0.278069 0.0394674 0.25301 0.9258 
16 1 493.338 178.311 -173.129 0.35453 0.200142 0.771525 0.488878 
11 1 -171.676 498.79 -167.428 0.57724 0.0155154 0.78724 0.216348 
12 1 188.237 489.533 -170.023 0.868403 0.466745 0.163961 -0.0337921 
10 1 480.623 482.664 -169.042 0.124833 0.728313 0.149426 0.657 
14 1 -165.639 -168.267 -154.941 0.568594 0.386088 0.403848 0.603775 
15 1 159.386 -151.393 -161.409 0.735129 0.369955 0.135649 0.55165 
17 1 -172.95 155.076 -155.125 0.605601 0.454728 -0.0929016 0.646404 
20 1 -160.348 -490.67 164.469 0.677727 0.255077 0.687313 -0.0567738 
23 1 -149.455 -169.666 161.565 0.14457 0.508736 0.485048 0.69643 
19 1 -494.278 -496.922 171.518 0.145622 0.260629 0.875837 0.379178 
21 1 187.128 -481.966 170.287 -0.0121056 0.0132117 0.968148 0.249737 
22 1 -497.874 -174.152 169.036 0.597475 0.622007 0.495716 0.101963 
24 1 168.383 -154.983 179.183 0.153448 0.61074 0.547616 0.550969 
25 1 489.628 164.617 167.413 0.26668 0.0779724 0.196895 0.940231 
3 1 173.681 -491.025 484.1 0.626599 0.217963 0.497701 0.558713 
4 1 491.348 -163.809 475.247 0.340975 0.38413 0.15646 0.843624 
7 1 -499.244 167.036 -499.712 0.351849 0.546303 0.281191 0.706178 
ITEM: TIMESTEP
100000
ITEM: NUMBER OF ATOMS
25
ITEM: BOX BOUNDS pp pp pp
-5.0000000000000000e+02 5.0000000000000000e+02
-5.0000000000000000e+02 5.0000000000000000e+02
-5.0000000000000000e+02 5.0000000000000000e+02
ITEM: ATOMS id type x y z c_q[1] c_q[2] c_q[3] c_q[4] 
2 1 -164.205 -493.536 -492.821 0.165508 0.648037 0.370632 0.644428 
6 1 150.008 -169.698 -497.411 0.193246 0.779874 0.240372 0.544677 
5 1 -165.75 -154.386 -485.77 0.826535 0.367668 0.179976 0.386353 
8 1 -157.976 160.636 -497.225 0.900445 0.186044 0.0912844 0.382432 
7 1 -498.397 169.707 -498.091 0.313028 0.529674 0.315786 0.722314 
9 1 187.59 183.752 -498.81 0.549105 0.408077 0.316644 0.657034 
1 1 -498.462 487.079 -487.164 0.0992886 0.102909 0.634073 0.759936 
13 1 490.674 -166.393 -188.89 0.78041 0.09535 0.354305 0.506297 
18 1 159.438 180.885 -167.079 0.223605 0.0445587 0.231358 0.945774 
16 1 498.702 177.58 -172.464 0.387098 0.195494 0.757572 0.487875 
11 1 -173.251 498.474 -171.369 0.574075 0.0305449 0.79906 0.176092 
10 1 479.417 484.46 -169.848 0.142485 0.774524 0.198888 0.583313 
14 1 -160.603 -170.888 -156.604 0.573812 0.356035 0.415591 0.609313 
15 1 160.215 -149.396 -165.795 0.709585 0.355064 0.145429 0.59099 
17 1 -170.494 157.77 -156.845 0.619275 0.444013 -0.116785 0.636955 
12 1 193.905 491.175 -165.187 0.852848 0.500382 0.126409 -0.0793063 
23 1 -145.582 -169.552 160.266 0.136457 0.526098 0.481465 0.687599 
19 1 -491.036 -498.165 169.239 0.102795 0.246788 0.879955 0.392693 
20 1 -166.043 -492.897 166.822 0.677887 0.25175 0.686825 -0.0732333 
21 1 184.854 -483.902 168.925 -0.0431854 0.0662819 0.956625 0.280375 
22 1 -498.824 -173.209 166.811 0.589578 0.616814 0.511728 0.100364 
24 1 172.795 -164.777 182.528 0.164867 0.639144 0.518367 0.543699 
25 1 -499.422 160.756 167.454 0.241454 0.0403152 0.176409 0.953391 
3 1 179.565 -495.08 485.079 0.656863 0.236926 0.472729 0.537517 
4 1 488.599 -165.355 474.336 0.341819 0.389202 0.141592 0.843584 
ITEM: TIMESTEP
110000
ITEM: NUMBER OF ATOMS
25
ITEM: BOX BOUNDS pp pp pp
-5.0000000000000000e+02 5.0000000000000000e+02
-5.0000000000000000e+02 5.0000000000000000e+02
-5.0000000000000000e+02 5.0000000000000000e+02
ITEM: ATOMS id type x y z c_q[1] c_q[2] c_q[3] c_q[4] 
2 1 -166.809 -489.205 -494.527 0.167086 0.651641 0.364295 0.643999 
6 1 149.552 -171.848 -495.895 0.228263 0.811334 0.181939 0.506489 
5 1 -164.976 -153.434 -484.302 0.832607 0.389641 0.179539 0.350301 
8 1 -153.746 160.996 -493.42 0.893853 0.175059 0.0930538 0.402146 
7 1 500.225 172.396 -499.479 0.291071 0.485728 0.361404 0.740765 
9 1 186.309 184.802 -499.134 0.515796 0.405483 0.346466 0.670447 
1 1 -498.138 488.889 -491.543 0.0777919 0.0843195 0.667577 0.735649 
13 1 493.309 -163.6 -188.026 0.781439 0.112223 0.359176 0.497746 
16 1 -499.044 179.65 -172.038 0.380977 0.201233 0.768108 0.47368 
18 1 151.944 181.44 -170.838 0.207346 0.00683422 0.162235 0.964697 
11 1 -175.506 497.257 -171.569 0.601003 0.0119766 0.778914 0.178732 
12 1 190.409 491.813 -169.437 0.858648 0.480335 0.143932 -0.106231 
10 1 482.853 479.612 -170.641 0.176744 0.779908 0.187169 0.570502 
14 1 -162.546 -169.373 -159.189 0.569272 0.329215 0.433429 0.616187 
15 1 154.61 -151.626 -161.145 0.697473 0.352999 0.164123 0.601653 
17 1 -176.53 157.795 -156.656 0.635186 0.4418 -0.131174 0.619795 
20 1 -170.417 -494.826 161.183 0.684799 0.223384 0.692394 -0.0417128 
22 1 -497.615 -168.499 167.523 0.574383 0.648455 0.497715 0.0432426 
23 1 -145.579 -161.942 161.027 0.122445 0.528974 0.47479 0.692653 
19 1 -494.539 -495.226 169.628 0.0881375 0.234423 0.894588 0.370122 
21 1 183.021 -489.058 166.866 0.00217463 0.0833428 0.957326 0.276723 
24 1 173.138 -163.425 179.85 0.123102 0.663486 0.497113 0.545445 
25 1 -496.726 163.32 168.016 0.279848 0.0545041 0.158423 0.945313 
3 1 185.755 -494.63 483.986 0.642363 0.283205 0.482475 0.523815 
4 1 486.977 -166.55 475.281 0.32398 0.372628 0.134337 0.85915 
ITEM: TIMESTEP
120000
ITEM: NUMBER OF ATOMS
25
ITEM: BOX BOUNDS pp pp pp
-5.0000000000000000e+02 5.0000000000000000e+02
-5.0000000000000000e+02 5.0000000000000000e+02
-5.0000000000000000e+02 5.0000000000000000e+02
ITEM: ATOMS id type x y z c_q[1] c_q[2] c_q[3] c_q[4] 
2 1 -165.262 -488.841 -495.683 0.146457 0.691509 0.374466 0.600117 
6 1 147.87 -171.569 -497.163 0.200148 0.812726 0.215243 0.503078 
5 1 -166.019 -149.614 -482.964 0.804773 0.425896 0.188291 0.368103 
8 1 -153.933 162.374 -493.423 0.903313 0.192123 0.128406 0.361422 
7 1 498.347 176.631 -498.268 0.317525 0.499927 0.326783 0.736521 
1 1 -495.937 496.491 -493.154 0.126549 0.0419212 0.652322 0.746126 
13 1 490.601 -161.48 -191.613 0.763653 0.113015 0.337144 0.538884 
16 1 -495.047 180.839 -173.968 0.346323 0.229366 0.762689 0.49574 
18 1 148.929 184.46 -168.493 0.152518 0.0348934 0.177932 0.971525 
11 1 -177.61 499.062 -175.072 0.585064 0.0687647 0.787984 0.179031 
12 1 191.88 494.668 -171.43 0.870629 0.457793 0.13343 -0.120945 
14 1 -158.185 -170.727 -159.796 0.519466 0.343513 0.43601 0.649654 
15 1 152.837 -150.687 -163.067 0.697608 0.3377 0.185169 0.604164 
17 1 -175.236 159.851 -156.446 0.637463 0.43207 -0.168572 0.615256 
10 1 481.385 485.354 -165.24 0.132943 0.764169 0.215805 0.593127 
20 1 -172.337 -484.236 167.005 0.698374 0.249388 0.669813 -0.0378077 
21 1 180.631 -489.493 162.542 0.00859881 0.0629501 0.952561 0.297641 
22 1 -497.425 -169.395 165.721 0.557565 0.649878 0.51314 0.0588768 
23 1 -152.052 -164.606 157.613 0.175274 0.53516 0.43902 0.700103 
19 1 -494.513 -493.242 168.634 0.0865809 0.240595 0.901737 0.348551 
24 1 167.261 -163.625 177.701 0.0956079 0.64575 0.510151 0.560011 
25 1 497.779 162.775 170.395 0.200216 0.0523443 0.168521 0.963729 
3 1 188.902 -495.823 480.005 0.653273 0.294651 0.465686 0.519184 
4 1 491.425 -171.851 476.856 0.312635 0.383796 0.142172 0.857174 
9 1 183.92 186.05 -498.895 0.518715 0.384279 0.347217 0.680224 
ITEM: TIMESTEP
130000
ITEM: NUMBER OF ATOMS
25
ITEM: BOX BOUNDS pp pp pp
-5.0000000000000000e+02 5.0000000000000000e+02
-5.0000000000000000e+02 5.0000000000000000e+02
-5.0000000000000000e+02 5.0000000000000000e+02
ITEM: ATOMS id type x y z c_q[1] c_q[2] c_q[3] c_q[4] 
1 1 -498.273 -497.244 -497.984 0.0995592 0.0763013 0.66274 0.73827 
2 1 -170.664 -489.799 -494.28 0.18425 0.658419 0.36919 0.629472 
5 1 -161.666 -151.92 -482.861 0.773927 0.408669 0.225259 0.428118 
8 1 -155.669 161.293 -495.658 0.891875 0.226798 0.124384 0.371012 
12 1 186.657 -497.691 -175.697 0.873407 0.451749 0.147216 -0.106823 
13 1 498.221 -163.468 -190.06 0.752851 0.119463 0.385163 0.520187 
16 1 -496.419 178.754 -178.184 0.341636 0.262489 0.789007 0.438009 
18 1 148.49 182.514 -168.383 0.0942274 0.0119466 0.18808 0.97755 
11 1 -178.378 484.902 -173.68 0.568258 0.0404335 0.803108 0.174543 
14 1 -157.481 -173.529 -163.88 0.495181 0.346517 0.498716 0.621293 
15 1 152.655 -147.58 -164.193 0.650581 0.372335 0.148592 0.645004 
17 1 -170.671 158.429 -158.975 0.668159 0.456868 -0.163453 0.564021 
10 1 485.033 487.679 -158.257 0.107221 0.775119 0.255066 0.56801 
19 1 -499.823 -492.96 160.482 0.0755175 0.237759 0.908429 0.335446 
21 1 176.348 -488.98 161.451 0.0126921 0.0537751 0.960067 0.274259 
22 1 -493.421 -173.001 157.539 0.567111 0.655404 0.498606 0.0149382 
23 1 -153.859 -167.788 154.299 0.160756 0.507117 0.457235 0.71269 
20 1 -174.069 -488.125 172.294 0.695331 0.222733 0.682424 -0.03466 
24 1 165.424 -163.741 178.464 0.12695 0.644169 0.497541 0.566906 
25 1 499.337 165.233 170.863 0.164136 0.0968845 0.185316 0.964018 
3 1 184.184 -496.781 480.036 0.622302 0.298816 0.473223 0.547275 
6 1 149.653 -175.947 498.394 0.172848 0.794459 0.179005 0.553999 
4 1 488.327 -173.245 473.931 0.318356 0.34897 0.161816 0.866421 
9 1 182.162 188.608 497.997 0.549121 0.366775 0.281522 0.696195 
7 1 495.337 176.994 498.333 0.307338 0.475171 0.349788 0.746595 
ITEM: TIMESTEP
140000
ITEM: NUMBER OF ATOMS
25
ITEM: BOX BOUNDS pp pp pp
-5.0000000000000000e+02 5.0000000000000000e+02
-5.0000000000000000e+02 5.0000000000000000e+02
-5.0000000000000000e+02 5.0000000000000000e+02
ITEM: ATOMS id type x y z c_q[1] c_q[2] c_q[3] c_q[4] 
1 1 -494.363 -496.271 -495.172 0.137323 0.0572681 0.683587 0.714543 
2 1 -170.003 -488.46 -498.447 0.20497 0.660933 0.337853 0.637973 
6 1 153.456 -177.523 -498.683 0.237297 0.768036 0.146199 0.576574 
5 1 -163.687 -147.734 -483.403 0.764697 0.432305 0.240695 0.412815 
9 1 181.447 187.436 500.445 0.46878 0.412437 0.290785 0.724972 
12 1 187.172 -498.225 -178.206 0.88451 0.421768 0.147972 -0.13363 
14 1 -150.185 -171.629 -165.827 0.494487 0.352788 0.487631 0.627088 
13 1 492.544 -169.149 -188.51 0.7387 0.143608 0.382153 0.536338 
18 1 151.923 182.926 -169.944 0.118671 0.0593311 0.226599 0.964909 
16 1 498.859 179.312 -173.135 0.323986 0.236165 0.783782 0.474283 
11 1 -180.049 485.168 -174.408 0.531217 0.000780024 0.830254 0.168779 
15 1 157.147 -147.029 -167.063 0.638117 0.343173 0.118068 0.679042 
17 1 -170.541 160.249 -163.091 0.638646 0.430885 -0.210824 0.601683 
10 1 488.8 486.363 -158.855 0.112091 0.764546 0.253212 0.582055 
21 1 176.023 -487.229 154.565 0.0119311 0.0322497 0.964892 0.260386 
19 1 490.208 -488.241 161.916 0.0455698 0.186088 0.926085 0.325054 
22 1 -495.158 -171.72 157.951 0.524266 0.671424 0.523571 0.0144317 
23 1 -158.327 -170.663 151.748 0.134752 0.485113 0.45358 0.735372 
20 1 -172.131 -491.695 169.588 0.727972 0.226887 0.64439 -0.0577941 
24 1 166.598 -163.618 181.035 0.106715 0.657144 0.496502 0.557009 
25 1 -500.087 175.618 168.551 0.186577 0.120665 0.157567 0.962186 
3 1 187.623 -498.632 481.065 0.621418 0.32701 0.429476 0.567851 
4 1 482.74 -171.84 474.692 0.347201 0.367361 0.136083 0.852044 
8 1 -152.079 157.256 496.943 0.871341 0.23617 0.118569 0.413437 
7 1 495.277 178.027 498.222 0.345522 0.452004 0.335973 0.750619 
ITEM: TIMESTEP
150000
ITEM: NUMBER OF ATOMS
25
ITEM: BOX BOUNDS pp pp pp
-5.0000000000000000e+02 5.0000000000000000e+02
-5.0000000000000000e+02 5.0000000000000000e+02
-5.0000000000000000e+02 5.0000000000000000e+02
ITEM: ATOMS id type x y z c_q[1] c_q[2] c_q[3] c_q[4] 
6 1 154.77 -179.264 -494.533 0.257444 0.739786 0.184182 0.59373 
5 1 -167.585 -144.018 -489.897 0.740364 0.435202 0.253527 0.445179 
12 1 186.328 -496.623 -177.444 0.894166 0.391273 0.204559 -0.0743497 
13 1 496.65 -170.811 -185.232 0.739815 0.0967664 0.387322 0.541564 
14 1 -150.407 -164.9 -170.458 0.400288 0.403445 0.534364 0.625665 
15 1 153.857 -149.025 -169.724 0.607711 0.345278 0.165161 0.695839 
16 1 -499.484 169.8 -172.805 0.350009 0.239007 0.758857 0.494474 
18 1 147.696 183.834 -171.065 0.145301 0.0419956 0.230751 0.961186 
11 1 -182.041 482.258 -173.661 0.507 -0.0762989 0.837364 0.189605 