ITEM: TIMESTEP
0
ITEM: NUMBER OF ATOMS
15
ITEM: BOX BOUNDS
-500.000000 500.000000
-500.000000 500.000000
-500.000000 500.000000
ITEM: ATOMS id type x y z c_q[1] c_q[2] c_q[3] c_q[4]
1 1 -500.000000 -500.000000 -500.000000 0.427365 0.058676 0.251179 0.866502
2 1 -166.666667 -500.000000 -500.000000 0.731955 0.189737 0.213154 0.618714
3 1 166.666667 -500.000000 -500.000000 0.192912 0.701310 0.398064 0.559012
4 1 -500.000000 -166.666667 -500.000000 0.133611 0.444930 0.856873 0.223503
5 1 -166.666667 -166.666667 -500.000000 0.471813 0.356808 0.502301 0.630693
6 1 166.666667 -166.666667 -500.000000 0.450764 0.595727 0.312287 0.586855
7 1 -500.000000 166.666667 -500.000000 0.577066 0.157222 0.618550 0.509580
8 1 -166.666667 166.666667 -500.000000 0.584954 0.676801 0.173967 0.411709
9 1 166.666667 166.666667 -500.000000 0.285165 0.589965 0.381599 0.651924
10 1 -500.000000 -500.000000 -166.666667 0.656428 0.388945 0.646350 0.007445
11 1 -166.666667 -500.000000 -166.666667 0.399657 0.687812 0.507099 0.331722
12 1 166.666667 -500.000000 -166.666667 0.412136 0.486956 0.498010 0.587370
13 1 -500.000000 -166.666667 -166.666667 0.044084 0.407217 0.641863 0.648261
14 1 -166.666667 -166.666667 -166.666667 0.521646 0.810561 0.223946 0.143956
15 1 166.666667 -166.666667 -166.666667 0.163836 0.888025 0.177606 0.391184
