LAMMPS data file

15 atoms
15 ellipsoids
0 bonds
0 angles
0 dihedrals

1 atom types
0 bond types
0 angle types
0 dihedral types

-500.000000 500.000000 xlo xhi
-500.000000 500.000000 ylo yhi
-500.000000 500.000000 zlo zhi

Masses

1 203166.000000

Atoms

1 1 -500.000000 -500.000000 -500.000000 1 1.000000 3 0.000000
2 1 -166.666667 -500.000000 -500.000000 1 1.000000 4 0.000000
3 1 166.666667 -500.000000 -500.000000 1 1.000000 5 0.000000
4 1 -500.000000 -166.666667 -500.000000 1 1.000000 6 0.000000
5 1 -166.666667 -166.666667 -500.000000 1 1.000000 7 0.000000
6 1 166.666667 -166.666667 -500.000000 1 1.000000 8 0.000000
7 1 -500.000000 166.666667 -500.000000 1 1.000000 9 0.000000
8 1 -166.666667 166.666667 -500.000000 1 1.000000 10 0.000000
9 1 166.666667 166.666667 -500.000000 1 1.000000 11 0.000000
10 1 -500.000000 -500.000000 -166.666667 1 1.000000 12 0.000000
11 1 -166.666667 -500.000000 -166.666667 1 1.000000 13 0.000000
12 1 166.666667 -500.000000 -166.666667 1 1.000000 14 0.000000
13 1 -500.000000 -166.666667 -166.666667 1 1.000000 15 0.000000
14 1 -166.666667 -166.666667 -166.666667 1 1.000000 16 0.000000
15 1 166.666667 -166.666667 -166.666667 1 1.000000 17 0.000000

Ellipsoids

1 55.000000 110.000000 110.000000 0.427365 0.058676 0.251179 0.866502
2 55.000000 110.000000 110.000000 0.731955 0.189737 0.213154 0.618714
3 55.000000 110.000000 110.000000 0.192912 0.701310 0.398064 0.559012
4 55.000000 110.000000 110.000000 0.133611 0.444930 0.856873 0.223503
5 55.000000 110.000000 110.000000 0.471813 0.356808 0.502301 0.630693
6 55.000000 110.000000 110.000000 0.450764 0.595727 0.312287 0.586855
7 55.000000 110.000000 110.000000 0.577066 0.157222 0.618550 0.509580
8 55.000000 110.000000 110.000000 0.584954 0.676801 0.173967 0.411709
9 55.000000 110.000000 110.000000 0.285165 0.589965 0.381599 0.651924
10 55.000000 110.000000 110.000000 0.656428 0.388945 0.646350 0.007445
11 55.000000 110.000000 110.000000 0.399657 0.687812 0.507099 0.331722
12 55.000000 110.000000 110.000000 0.412136 0.486956 0.498010 0.587370
13 55.000000 110.000000 110.000000 0.044084 0.407217 0.641863 0.648261
14 55.000000 110.000000 110.000000 0.521646 0.810561 0.223946 0.143956
15 55.000000 110.000000 110.000000 0.163836 0.888025 0.177606 0.391184




