LAMMPS data file

35 atoms
35 ellipsoids
0 bonds
0 angles
0 dihedrals

1 atom types
0 bond types
0 angle types
0 dihedral types

-500.000000 500.000000 xlo xhi
-500.000000 500.000000 ylo yhi
-500.000000 500.000000 zlo zhi

Masses

1 203166.000000

Atoms

1 1 -500.000000 -500.000000 -500.000000 1 1.000000 3 0.000000
2 1 -250.000000 -500.000000 -500.000000 1 1.000000 4 0.000000
3 1 0.000000 -500.000000 -500.000000 1 1.000000 5 0.000000
4 1 250.000000 -500.000000 -500.000000 1 1.000000 6 0.000000
5 1 -500.000000 -250.000000 -500.000000 1 1.000000 7 0.000000
6 1 -250.000000 -250.000000 -500.000000 1 1.000000 8 0.000000
7 1 0.000000 -250.000000 -500.000000 1 1.000000 9 0.000000
8 1 250.000000 -250.000000 -500.000000 1 1.000000 10 0.000000
9 1 -500.000000 0.000000 -500.000000 1 1.000000 11 0.000000
10 1 -250.000000 0.000000 -500.000000 1 1.000000 12 0.000000
11 1 0.000000 0.000000 -500.000000 1 1.000000 13 0.000000
12 1 250.000000 0.000000 -500.000000 1 1.000000 14 0.000000
13 1 -500.000000 250.000000 -500.000000 1 1.000000 15 0.000000
14 1 -250.000000 250.000000 -500.000000 1 1.000000 16 0.000000
15 1 0.000000 250.000000 -500.000000 1 1.000000 17 0.000000
16 1 250.000000 250.000000 -500.000000 1 1.000000 18 0.000000
17 1 -500.000000 -500.000000 -250.000000 1 1.000000 19 0.000000
18 1 -250.000000 -500.000000 -250.000000 1 1.000000 20 0.000000
19 1 0.000000 -500.000000 -250.000000 1 1.000000 21 0.000000
20 1 250.000000 -500.000000 -250.000000 1 1.000000 22 0.000000
21 1 -500.000000 -250.000000 -250.000000 1 1.000000 23 0.000000
22 1 -250.000000 -250.000000 -250.000000 1 1.000000 24 0.000000
23 1 0.000000 -250.000000 -250.000000 1 1.000000 25 0.000000
24 1 250.000000 -250.000000 -250.000000 1 1.000000 26 0.000000
25 1 -500.000000 0.000000 -250.000000 1 1.000000 27 0.000000
26 1 -250.000000 0.000000 -250.000000 1 1.000000 28 0.000000
27 1 0.000000 0.000000 -250.000000 1 1.000000 29 0.000000
28 1 250.000000 0.000000 -250.000000 1 1.000000 30 0.000000
29 1 -500.000000 250.000000 -250.000000 1 1.000000 31 0.000000
30 1 -250.000000 250.000000 -250.000000 1 1.000000 32 0.000000
31 1 0.000000 250.000000 -250.000000 1 1.000000 33 0.000000
32 1 250.000000 250.000000 -250.000000 1 1.000000 34 0.000000
33 1 -500.000000 -500.000000 0.000000 1 1.000000 35 0.000000
34 1 -250.000000 -500.000000 0.000000 1 1.000000 36 0.000000
35 1 0.000000 -500.000000 0.000000 1 1.000000 37 0.000000

Ellipsoids

1 55.000000 110.000000 110.000000 0.405009 0.573472 0.577359 0.416838
2 55.000000 110.000000 110.000000 0.685317 0.143031 0.612915 0.366359
3 55.000000 110.000000 110.000000 0.205015 0.711685 0.441078 0.506877
4 55.000000 110.000000 110.000000 0.609558 0.205782 0.615989 0.454588
5 55.000000 110.000000 110.000000 0.143082 0.814535 0.518945 0.216230
6 55.000000 110.000000 110.000000 0.522407 0.360909 0.541588 0.550925
7 55.000000 110.000000 110.000000 0.739287 0.213539 0.510664 0.383506
8 55.000000 110.000000 110.000000 0.357869 0.750130 0.490609 0.261798
9 55.000000 110.000000 110.000000 0.459191 0.304638 0.041546 0.833435
10 55.000000 110.000000 110.000000 0.060620 0.098748 0.630554 0.767448
11 55.000000 110.000000 110.000000 0.588690 0.138473 0.655645 0.452105
12 55.000000 110.000000 110.000000 0.354946 0.091689 0.651336 0.664355
13 55.000000 110.000000 110.000000 0.572263 0.155197 0.357953 0.721317
14 55.000000 110.000000 110.000000 0.399014 0.565839 0.036645 0.720605
15 55.000000 110.000000 110.000000 0.418465 0.591329 0.612989 0.315375
16 55.000000 110.000000 110.000000 0.458175 0.736520 0.479213 0.134048
17 55.000000 110.000000 110.000000 0.537987 0.433284 0.653161 0.310187
18 55.000000 110.000000 110.000000 0.323786 0.099228 0.681539 0.648707
19 55.000000 110.000000 110.000000 0.552750 0.383383 0.576838 0.463403
20 55.000000 110.000000 110.000000 0.734095 0.608318 0.301725 0.003859
21 55.000000 110.000000 110.000000 0.411439 0.517419 0.679117 0.319054
22 55.000000 110.000000 110.000000 0.736012 0.219040 0.637034 0.067042
23 55.000000 110.000000 110.000000 0.751059 0.243150 0.478981 0.383882
24 55.000000 110.000000 110.000000 0.368599 0.822328 0.432884 0.022856
25 55.000000 110.000000 110.000000 0.263868 0.506024 0.466046 0.676102
26 55.000000 110.000000 110.000000 0.100423 0.836269 0.154736 0.516358
27 55.000000 110.000000 110.000000 0.398145 0.477467 0.557903 0.549772
28 55.000000 110.000000 110.000000 0.726147 0.228363 0.062783 0.645460
29 55.000000 110.000000 110.000000 0.343097 0.404713 0.436649 0.726519
30 55.000000 110.000000 110.000000 0.767332 0.071909 0.125125 0.624800
31 55.000000 110.000000 110.000000 0.373942 0.069015 0.836666 0.394200
32 55.000000 110.000000 110.000000 0.487091 0.464428 0.283647 0.683077
33 55.000000 110.000000 110.000000 0.212795 0.206347 0.694542 0.655554
34 55.000000 110.000000 110.000000 0.034313 0.640047 0.559877 0.525072
35 55.000000 110.000000 110.000000 0.009717 0.850745 0.271384 0.449987




