ITEM: TIMESTEP
0
ITEM: NUMBER OF ATOMS
35
ITEM: BOX BOUNDS pp pp pp
-5.0000000000000000e+02 5.0000000000000000e+02
-5.0000000000000000e+02 5.0000000000000000e+02
-5.0000000000000000e+02 5.0000000000000000e+02
ITEM: ATOMS id type x y z c_q[1] c_q[2] c_q[3] c_q[4] 
1 1 -500 -500 -500 0.405009 0.573472 0.577359 0.416838 
2 1 -250 -500 -500 0.685317 0.143031 0.612915 0.366359 
3 1 0 -500 -500 0.205015 0.711685 0.441078 0.506877 
4 1 250 -500 -500 0.609558 0.205782 0.615989 0.454588 
5 1 -500 -250 -500 0.143082 0.814535 0.518945 0.21623 
6 1 -250 -250 -500 0.522407 0.360909 0.541588 0.550925 
7 1 0 -250 -500 0.739287 0.213539 0.510664 0.383506 
8 1 250 -250 -500 0.357869 0.75013 0.490609 0.261798 
9 1 -500 0 -500 0.459191 0.304638 0.041546 0.833435 
10 1 -250 0 -500 0.06062 0.098748 0.630554 0.767448 
11 1 0 0 -500 0.58869 0.138473 0.655645 0.452105 
12 1 250 0 -500 0.354946 0.091689 0.651336 0.664355 
13 1 -500 250 -500 0.572263 0.155197 0.357953 0.721317 
14 1 -250 250 -500 0.399014 0.565839 0.036645 0.720605 
15 1 0 250 -500 0.418465 0.591329 0.612989 0.315375 
16 1 250 250 -500 0.458175 0.73652 0.479213 0.134048 
17 1 -500 -500 -250 0.537987 0.433284 0.653161 0.310187 
18 1 -250 -500 -250 0.323786 0.099228 0.681539 0.648707 
19 1 0 -500 -250 0.55275 0.383383 0.576838 0.463403 
20 1 250 -500 -250 0.734095 0.608318 0.301725 0.003859 
21 1 -500 -250 -250 0.411439 0.517419 0.679117 0.319054 
22 1 -250 -250 -250 0.736012 0.21904 0.637034 0.067042 
23 1 0 -250 -250 0.751059 0.24315 0.478981 0.383882 
24 1 250 -250 -250 0.368599 0.822328 0.432884 0.022856 
25 1 -500 0 -250 0.263868 0.506024 0.466046 0.676102 
26 1 -250 0 -250 0.100423 0.836269 0.154736 0.516358 
27 1 0 0 -250 0.398145 0.477467 0.557903 0.549772 
28 1 250 0 -250 0.726147 0.228363 0.062783 0.64546 
29 1 -500 250 -250 0.343097 0.404713 0.436649 0.726519 
30 1 -250 250 -250 0.767332 0.071909 0.125125 0.6248 
31 1 0 250 -250 0.373942 0.069015 0.836666 0.3942 
32 1 250 250 -250 0.487091 0.464428 0.283647 0.683077 
33 1 -500 -500 0 0.212795 0.206347 0.694542 0.655554 
34 1 -250 -500 0 0.034313 0.640047 0.559877 0.525072 
35 1 0 -500 0 0.009717 0.850745 0.271384 0.449987 
ITEM: TIMESTEP
10000
ITEM: NUMBER OF ATOMS
35
ITEM: BOX BOUNDS pp pp pp
-5.0000000000000000e+02 5.0000000000000000e+02
-5.0000000000000000e+02 5.0000000000000000e+02
-5.0000000000000000e+02 5.0000000000000000e+02
ITEM: ATOMS id type x y z c_q[1] c_q[2] c_q[3] c_q[4] 
6 1 -247.431 -252.706 -495.527 0.546736 0.367541 0.518219 0.545383 
9 1 496.362 -2.68279 -497.244 0.475529 0.305647 0.017726 0.824704 
10 1 -251.837 3.40937 -499.088 0.0448085 0.0956918 0.613463 0.782623 
11 1 -1.11948 3.26779 -495.832 0.623884 0.147216 0.632874 0.434243 
12 1 257.627 0.322244 -498.759 0.368132 0.0706843 0.636554 0.674004 
13 1 -496.43 251.418 -497.703 0.530596 0.164203 0.314666 0.769734 
3 1 -0.945773 -499.899 -494.684 0.14052 0.728307 0.478897 0.469553 
18 1 -256.452 -499.533 -255.957 0.389139 0.103064 0.681955 0.610644 
20 1 252.388 -498.434 -249.962 0.705617 0.648471 0.284011 0.0304608 
17 1 499.498 -495.301 -253.297 0.565036 0.451271 0.622616 0.299063 
22 1 -246.909 -254.8 -250.043 0.726872 0.165945 0.665293 0.0387738 
23 1 -2.33955 -250.576 -246.96 0.752498 0.212685 0.482688 0.394365 
24 1 248.244 -248.198 -247.272 0.37222 0.825766 0.423726 0.00438901 
21 1 496.473 -249.921 -250.465 0.463479 0.514022 0.681793 0.23691 
27 1 1.36013 -0.524136 -249.918 0.370926 0.490628 0.566532 0.548398 
26 1 -252.416 -0.92062 -252.003 0.0809476 0.84813 0.0940547 0.515049 
28 1 247.152 2.31142 -246.269 0.713727 0.240249 0.0428733 0.656533 
25 1 491.003 2.94969 -248.438 0.25039 0.53893 0.453488 0.664235 
29 1 -499.126 251.594 -251.942 0.354161 0.427577 0.374355 0.742702 
30 1 -251.977 249.71 -251.602 0.792033 0.093379 0.105483 0.594001 
31 1 -1.61217 251.398 -242.055 0.34984 0.106342 0.834966 0.41126 
32 1 246.78 245.193 -249.828 0.465522 0.514382 0.323898 0.643266 
19 1 -1.25208 494.758 -250.176 0.59313 0.366485 0.572889 0.43091 
35 1 -1.88727 -496.963 -0.381839 -0.0104894 0.854135 0.315433 0.413334 
33 1 496.324 -498.37 0.910561 0.160569 0.166718 0.708374 0.666805 
34 1 -250.106 497.232 2.62028 -0.026821 0.605195 0.601731 0.520518 
2 1 -251.925 -498.09 494.656 0.676223 0.145544 0.613413 0.381134 
1 1 497.895 -499.58 496.332 0.420121 0.564283 0.567921 0.427257 
5 1 -498.097 -250.066 498.802 0.140768 0.806617 0.518243 0.246937 
7 1 2.49163 -248.901 497.583 0.741716 0.219877 0.511064 0.3746 
8 1 251.69 -252.041 498.032 0.37781 0.767211 0.449527 0.258015 
14 1 -245.239 249.16 499.74 0.369524 0.534274 0.0578258 0.758063 
15 1 5.81647 252.964 -499.45 0.441087 0.589846 0.578158 0.35108 
16 1 241.009 243.581 494.612 0.46919 0.74676 0.454122 0.126426 
4 1 253.246 496.769 497.945 0.625557 0.176927 0.622027 0.436414 
ITEM: TIMESTEP
20000
ITEM: NUMBER OF ATOMS
35
ITEM: BOX BOUNDS pp pp pp
-5.0000000000000000e+02 5.0000000000000000e+02
-5.0000000000000000e+02 5.0000000000000000e+02
-5.0000000000000000e+02 5.0000000000000000e+02
ITEM: ATOMS id type x y z c_q[1] c_q[2] c_q[3] c_q[4] 
3 1 -1.55165 -500.189 -492.404 0.162198 0.723025 0.459648 0.489541 
12 1 257.933 -2.69178 -496.944 0.421867 0.0699767 0.618792 0.658959 
9 1 497.875 -9.11372 -492.253 0.44514 0.332858 -0.0281212 0.830822 
11 1 -2.05194 4.57762 -488.9 0.624215 0.151124 0.619903 0.450819 
15 1 9.50512 255.825 -498.094 0.417075 0.582568 0.594234 0.365442 
13 1 498.877 252.405 -499.275 0.542219 0.157885 0.314415 0.76303 
18 1 -247.376 -499.753 -256.148 0.41388 0.0609074 0.661137 0.622809 
20 1 248.891 -495.468 -249.288 0.701623 0.634623 0.321259 0.0420972 
17 1 500.01 -498.3 -255.092 0.559949 0.405575 0.653395 0.308287 
21 1 498.717 -249.371 -253.033 0.460847 0.553577 0.673651 0.165431 
22 1 -243.382 -254.942 -246.725 0.738005 0.134543 0.660096 0.0390027 
23 1 -0.550586 -251.194 -245.59 0.753874 0.229574 0.503957 0.353549 
24 1 245.145 -249.938 -247.29 0.350312 0.841342 0.41117 -0.0190854 
27 1 1.83597 -3.52031 -246.794 0.33862 0.516097 0.57706 0.534773 
26 1 -249.395 1.90812 -246.546 0.0887661 0.847671 0.0302801 0.522166 
28 1 244.826 0.0297491 -246.753 0.74456 0.269087 0.0523867 0.60867 
25 1 488.487 -0.116281 -249.324 0.263626 0.545769 0.433607 0.6668 
29 1 -499.078 255.303 -251.444 0.389078 0.422332 0.343852 0.74298 
30 1 -257.555 250.84 -246.209 0.780762 0.111441 0.087913 0.608492 
31 1 -1.31896 250.012 -244.656 0.31275 0.105394 0.85925 0.390857 
32 1 249.833 254.566 -247.649 0.465019 0.51457 0.338583 0.635874 
19 1 0.497643 499.936 -245.912 0.61318 0.377856 0.536945 0.439233 
33 1 492.335 -498.884 4.329 0.165881 0.168351 0.695533 0.67851 
34 1 -250.544 494.692 -0.574964 -0.0262133 0.586678 0.598082 0.545362 
35 1 1.97001 497.614 3.55965 -0.0314059 0.857561 0.31777 0.403268 
2 1 -258.441 -497.822 491.781 0.665937 0.143012 0.626655 0.378655 
6 1 -246.489 -255.732 497.137 0.51584 0.371834 0.497994 0.589619 
7 1 2.93956 -248.616 494.758 0.771699 0.240279 0.462045 0.36505 
8 1 252.859 -255.103 497.71 0.368167 0.7675 0.438109 0.288891 
5 1 498.595 -248.101 498.752 0.144828 0.811212 0.509163 0.248422 
10 1 -255.386 2.58391 499.566 0.0534874 0.0909507 0.597644 0.794789 
14 1 -238.653 248.246 497.533 0.371104 0.552312 0.0592908 0.744122 
16 1 247.581 246.402 494.167 0.476643 0.725093 0.485388 0.107002 
4 1 248.045 494.746 492.621 0.597013 0.162754 0.660157 0.425769 
1 1 499.83 491.053 493.656 0.426616 0.527678 0.570574 0.462602 
ITEM: TIMESTEP
30000
ITEM: NUMBER OF ATOMS
35
ITEM: BOX BOUNDS pp pp pp
-5.0000000000000000e+02 5.0000000000000000e+02
-5.0000000000000000e+02 5.0000000000000000e+02
-5.0000000000000000e+02 5.0000000000000000e+02
ITEM: ATOMS id type x y z c_q[1] c_q[2] c_q[3] c_q[4] 
8 1 256.005 -256.423 -499.468 0.411504 0.776382 0.373339 0.297512 
12 1 251.971 -3.11646 -498.321 0.399943 0.0589246 0.62119 0.671339 
9 1 -499.522 -10.3571 -492.718 0.444938 0.329512 -0.00458274 0.832725 
10 1 -254.593 3.6878 -499.867 0.0680168 0.0714594 0.58483 0.805134 
11 1 -4.67944 6.78845 -494.238 0.598689 0.132603 0.609068 0.503014 
3 1 -8.21944 499.853 -490.326 0.195358 0.718281 0.447944 0.49523 
18 1 -245.284 -498.56 -259.763 0.444701 0.032901 0.655275 0.609732 
19 1 -0.116828 -495.089 -245.554 0.619005 0.36431 0.51793 0.464607 
20 1 250.429 -490.466 -253.867 0.701929 0.642364 0.293082 0.0936303 
17 1 495.702 -495.494 -252.682 0.522197 0.3938 0.680101 0.331202 
22 1 -243.769 -258.767 -249.698 0.793354 0.131244 0.594065 0.0212351 
23 1 1.43956 -255.108 -243.112 0.769054 0.222843 0.506189 0.32042 
24 1 243.2 -250.105 -248.742 0.339985 0.859196 0.379751 -0.0445149 
21 1 496.103 -251.262 -257.068 0.429655 0.590379 0.66649 0.150466 
27 1 -0.474649 -6.54179 -248.093 0.305977 0.5327 0.57426 0.541141 
28 1 239.455 -2.56966 -247.331 0.749173 0.23283 0.0100072 0.620024 
25 1 489.451 -3.85039 -247.7 0.259127 0.521752 0.43842 0.68441 
26 1 -247.792 0.536433 -246.161 0.0971055 0.853579 0.00637347 0.511794 
29 1 -497.87 254.418 -247.452 0.43016 0.438204 0.334943 0.71467 
30 1 -256.654 257.01 -247.987 0.781676 0.101956 0.068253 0.611497 
31 1 -7.91209 247.742 -242.405 0.265144 0.0777292 0.884755 0.375319 
32 1 253.584 254.77 -248.821 0.467664 0.535937 0.338698 0.615911 
34 1 -247.375 494.275 -1.36809 -0.0194536 0.589968 0.611345 0.527083 
33 1 489.099 -499.94 4.83366 0.141513 0.180838 0.738602 0.633829 
35 1 1.1666 494.694 5.56863 0.0196559 0.855849 0.283703 0.432029 
5 1 -498.916 -248.44 -499.885 0.142458 0.788124 0.559865 0.212409 
6 1 -251.996 -258.366 495.414 0.503227 0.41551 0.496286 0.57255 
7 1 -2.23094 -250.227 496.652 0.756269 0.198522 0.45933 0.421499 
13 1 -498.039 249 498.138 0.550071 0.126061 0.280055 0.776595 
14 1 -239.019 249.126 498.604 0.3595 0.535231 0.0931706 0.758687 
15 1 7.69105 247.54 495.968 0.427981 0.555823 0.573802 0.422662 
16 1 253.374 248.714 498.044 0.496489 0.739041 0.43303 0.140724 
1 1 -497.237 491.374 499.988 0.404984 0.577185 0.54174 0.457563 
2 1 -259.956 494.259 496.157 0.617231 0.156884 0.649857 0.414849 
4 1 251 493.881 495.913 0.600135 0.133674 0.632997 0.470409 
ITEM: TIMESTEP
40000
ITEM: NUMBER OF ATOMS
35
ITEM: BOX BOUNDS pp pp pp
-5.0000000000000000e+02 5.0000000000000000e+02
-5.0000000000000000e+02 5.0000000000000000e+02
-5.0000000000000000e+02 5.0000000000000000e+02
ITEM: ATOMS id type x y z c_q[1] c_q[2] c_q[3] c_q[4] 
7 1 -5.02983 -248.932 -499.555 0.757984 0.159142 0.461839 0.432249 
8 1 247.337 -257.156 -498.829 0.394417 0.812977 0.329423 0.273831 
9 1 -497.09 -14.8656 499.486 0.414921 0.349054 0.00603577 0.840218 
12 1 254.622 -3.61574 -497.555 0.382962 0.110295 0.632255 0.664401 
10 1 -253.476 6.55574 -499.386 0.0520387 0.0130698 0.560937 0.826118 
11 1 -0.371819 7.53062 -496.293 0.651559 0.160546 0.569677 0.474514 
1 1 -498.728 491.83 -496.469 0.451946 0.58076 0.540478 0.407856 
3 1 -8.4153 498.557 -487.313 0.141237 0.746268 0.453143 0.466688 
20 1 251.495 -491.968 -250.771 0.694456 0.656005 0.286288 0.0736711 
17 1 496.191 -495.201 -256.614 0.545389 0.432211 0.638707 0.328327 
22 1 -242.232 -258.792 -249.052 0.753818 0.145818 0.640098 0.0277546 
23 1 4.08573 -260.555 -241.14 0.766393 0.223673 0.494936 0.343002 
24 1 242.661 -249.214 -247.799 0.320399 0.85542 0.406329 -0.0222957 
21 1 494.819 -248.05 -253.306 0.434791 0.599838 0.644503 0.189123 
27 1 -0.245842 -6.56814 -243.721 0.270015 0.552903 0.585209 0.528129 
28 1 236.004 -5.25516 -248.855 0.770008 0.215428 0.0609 0.597469 
26 1 -247.141 2.18421 -250.323 0.154591 0.826445 0.00174619 0.541375 
25 1 485.495 2.07414 -243.504 0.30058 0.497692 0.450571 0.677451 
29 1 -494.158 262.805 -238.109 0.461858 0.489327 0.331572 0.661291 
30 1 -253.584 258.723 -240.779 0.795215 0.0783919 0.0591112 0.598325 
31 1 -2.92721 246.483 -238.735 0.240756 0.126016 0.880953 0.387399 
32 1 258.414 249.451 -251.44 0.475675 0.533727 0.331499 0.615612 
18 1 -248.028 495.558 -256.908 0.471933 0.058935 0.621453 0.622577 
19 1 -3.537 499.168 -247.86 0.596302 0.389124 0.558442 0.425616 
34 1 -246.688 490.162 1.6479 -0.0414333 0.562876 0.603455 0.563291 
35 1 2.1068 494.168 4.15248 0.0686346 0.853516 0.288312 0.428575 
33 1 489.583 495.52 1.58381 0.136572 0.182219 0.760398 0.608226 
4 1 251.928 -498.172 496.847 0.619896 0.0998556 0.648836 0.429849 
5 1 -496.946 -243.427 499.244 0.137425 0.800793 0.554019 0.181406 
6 1 -255.489 -258.829 492.417 0.49437 0.398703 0.534176 0.557935 
13 1 -497.026 247.543 499.185 0.557563 0.11937 0.257482 0.780114 
14 1 -240.056 254.931 499.114 0.368874 0.573102 0.111999 0.723147 
15 1 7.85319 249.448 495.427 0.463529 0.565743 0.535482 0.422297 
16 1 251.464 257.359 495.4 0.518152 0.73984 0.393543 0.171113 
2 1 -263.946 497.71 496.911 0.615248 0.160671 0.65976 0.400464 
ITEM: TIMESTEP
50000
ITEM: NUMBER OF ATOMS
35
ITEM: BOX BOUNDS pp pp pp
-5.0000000000000000e+02 5.0000000000000000e+02
-5.0000000000000000e+02 5.0000000000000000e+02
-5.0000000000000000e+02 5.0000000000000000e+02
ITEM: ATOMS id type x y z c_q[1] c_q[2] c_q[3] c_q[4] 
3 1 -9.60638 -499.018 -483.672 0.174699 0.751661 0.40415 0.491069 
4 1 247.659 -498.271 -498.202 0.628936 0.0881918 0.643482 0.427308 
8 1 241.699 -256.51 -497.989 0.415322 0.767682 0.424668 0.240476 
9 1 -491.309 -12.361 -495.727 0.429736 0.343105 0.0520778 0.833603 
12 1 250.245 -4.98049 -496.069 0.381088 0.0847241 0.67616 0.624821 
10 1 -248.137 12.4984 -498.359 0.0333498 -0.0305442 0.506149 0.861259 
11 1 -0.385799 12.2314 -497.548 0.668944 0.113806 0.535576 0.502713 
1 1 497.64 488.349 -496.4 0.474578 0.587696 0.52819 0.38782 
19 1 -4.99425 -496.557 -253.055 0.556537 0.381451 0.598987 0.431249 
20 1 245.826 -489.888 -247.368 0.706488 0.653843 0.268369 0.036637 
17 1 496.139 -491.751 -258.545 0.563407 0.43681 0.617825 0.331755 
22 1 -240.984 -259.205 -251.259 0.731913 0.116206 0.666173 0.0837402 
23 1 7.52535 -261.531 -236.575 0.754598 0.251365 0.461712 0.392708 
24 1 238.897 -249.991 -246.813 0.29756 0.863008 0.408136 -0.00999193 
21 1 496.618 -251.654 -248.745 0.466012 0.580098 0.639488 0.193324 
27 1 3.64557 -4.48125 -243.613 0.295471 0.569289 0.550154 0.534731 
28 1 236.62 -1.62915 -250.075 0.762607 0.20546 0.0157544 0.613163 
26 1 -248.42 1.71598 -245.632 0.137694 0.852351 0.0193427 0.504146 
25 1 486.029 -0.156499 -241.507 0.312678 0.534467 0.441446 0.649387 
29 1 499.365 259.627 -238.781 0.428315 0.486688 0.387344 0.655473 
30 1 -251.595 262.858 -240.065 0.805489 0.0634999 0.0650284 0.585599 
31 1 -3.96377 242.354 -241.567 0.217146 0.0853903 0.894004 0.382509 
32 1 259.187 246.49 -252.379 0.439485 0.485381 0.367025 0.660719 
18 1 -249.015 495.817 -254.193 0.473812 0.0555433 0.5921 0.649488 
34 1 -249.745 495.994 2.4782 -0.000206703 0.581252 0.575362 0.575417 
35 1 2.90914 492.39 1.81782 0.114975 0.886083 0.255648 0.369164 
33 1 493.104 496.709 3.5432 0.103722 0.207775 0.769713 0.594653 
6 1 -261.003 -258.107 496.796 0.483555 0.383277 0.582283 0.529359 
7 1 -10.2953 -250.187 499.963 0.78783 0.120577 0.440408 0.413311 
5 1 -499.438 -241.625 493.53 0.151826 0.804754 0.539482 0.19565 
13 1 -497.334 244.735 497.17 0.519317 0.101628 0.238247 0.814383 
14 1 -241.275 255.597 -499.047 0.401519 0.584738 0.129909 0.692811 
15 1 5.49398 250.801 498.19 0.470989 0.557134 0.52525 0.438045 
16 1 256.543 255.627 489.998 0.506949 0.748841 0.398123 0.15407 
2 1 -260.758 496.388 494.713 0.625671 0.173255 0.641119 0.409249 
ITEM: TIMESTEP
60000
ITEM: NUMBER OF ATOMS
35
ITEM: BOX BOUNDS pp pp pp
-5.0000000000000000e+02 5.0000000000000000e+02
-5.0000000000000000e+02 5.0000000000000000e+02
-5.0000000000000000e+02 5.0000000000000000e+02
ITEM: ATOMS id type x y z c_q[1] c_q[2] c_q[3] c_q[4] 
3 1 -17.8521 498.814 -486.561 0.162231 0.74701 0.422175 0.487264 
4 1 244.844 -497.614 -496.299 0.636297 0.0946274 0.665498 0.378528 
7 1 -11.1544 -249.698 -499.783 0.768537 0.126285 0.443154 0.443866 
8 1 242.67 -256.613 -494.814 0.400384 0.746702 0.453184 0.277044 
9 1 -489.417 -15.2254 -493.291 0.426065 0.329287 0.100734 0.836595 
10 1 -249.449 9.96579 -496.385 0.0816015 -0.0191714 0.515824 0.852584 
12 1 246.699 -1.16829 -494.912 0.371129 0.0881084 0.707387 0.595067 
15 1 6.36539 249.927 498.649 0.489235 0.578652 0.502236 0.416617 
20 1 247.4 -485.287 -241.79 0.711427 0.656412 0.250973 0.00278891 
17 1 495.933 -495.421 -254.879 0.558531 0.478524 0.609202 0.296529 
22 1 -238.863 -261.759 -255.986 0.670556 0.112401 0.728491 0.0837938 
23 1 4.60822 -263.502 -237.456 0.764788 0.201345 0.454928 0.409389 
24 1 230.14 -248.801 -241.52 0.336513 0.849827 0.40477 0.0267295 
21 1 497.445 -251.054 -247.726 0.450452 0.579253 0.654616 0.181758 
27 1 3.48555 -2.76594 -241.005 0.270452 0.545712 0.545267 0.575968 
28 1 235.663 -5.69687 -249.918 0.746892 0.235886 0.037916 0.620543 
26 1 -250.844 2.20402 -240.029 0.0825127 0.868221 0.0279501 0.48847 
25 1 483.699 7.96216 -242.593 0.32277 0.525483 0.444862 0.64945 
29 1 499.705 260.455 -236.326 0.452736 0.482315 0.402086 0.633032 
30 1 -248.688 268.127 -239.173 0.80429 0.077875 0.0517132 0.586838 
31 1 -2.14931 247.376 -237.29 0.215235 0.0629016 0.902525 0.367648 
32 1 252.213 241.363 -255.159 0.445257 0.475281 0.387953 0.652186 
18 1 -249.81 498.047 -254.72 0.437121 0.0556954 0.590677 0.675962 
19 1 -2.19353 498.809 -250.135 0.522087 0.3905 0.63659 0.411932 
34 1 -251.848 493.232 -0.208712 -0.0313114 0.607359 0.591627 0.529257 
33 1 488.407 499.867 3.95267 0.100845 0.213038 0.741489 0.628203 
35 1 1.9058 493.505 4.46637 0.101971 0.857041 0.332885 0.379829 
6 1 -257.935 -261.591 496.698 0.52984 0.371537 0.567756 0.508806 
5 1 497.97 -243.942 490.812 0.162303 0.791576 0.559142 0.185541 
11 1 -0.318801 9.60401 -499.159 0.673529 0.115196 0.541596 0.489656 
13 1 -489.718 246.401 496.433 0.574445 0.0768696 0.250694 0.775407 
14 1 -242.7 253.444 499.317 0.427185 0.579169 0.0959793 0.687651 
16 1 257.221 258.506 491.192 0.539905 0.738669 0.37787 0.141721 
2 1 -259.496 -499.471 492.622 0.635975 0.181289 0.637173 0.395828 
1 1 498.636 494.416 496.756 0.420611 0.560098 0.598492 0.388824 
ITEM: TIMESTEP
70000
ITEM: NUMBER OF ATOMS
35
ITEM: BOX BOUNDS pp pp pp
-5.0000000000000000e+02 5.0000000000000000e+02
-5.0000000000000000e+02 5.0000000000000000e+02
-5.0000000000000000e+02 5.0000000000000000e+02
ITEM: ATOMS id type x y z c_q[1] c_q[2] c_q[3] c_q[4] 
3 1 -12.0567 499.932 -485.72 0.192502 0.739761 0.384871 0.517272 
4 1 243.291 -495.807 -497.894 0.583356 0.0947417 0.714962 0.373563 
6 1 -257.146 -266.031 -499.97 0.471819 0.352877 0.586488 0.555785 
8 1 247.615 -258.882 -497.5 0.367303 0.76963 0.466166 0.235471 
9 1 -488.596 -13.572 -490.51 0.436 0.310735 0.105507 0.837983 
12 1 243.455 -1.65121 -493.964 0.336958 0.141823 0.712013 0.599486 
10 1 -245.232 8.18773 -491.387 0.0879284 -0.0125271 0.561425 0.822748 
11 1 2.24941 8.09464 -495.69 0.68022 0.123737 0.550991 0.467332 
13 1 -489.601 241.397 499.964 0.527184 0.10575 0.202959 0.818353 
15 1 4.69217 252.435 -497.131 0.491973 0.57431 0.478695 0.446073 
18 1 -249.644 -496.643 -253.03 0.414661 0.0963709 0.607219 0.670861 
19 1 -1.49608 -495.771 -249.974 0.549474 0.360682 0.642428 0.394047 
20 1 248.035 -485.128 -238.429 0.71858 0.649129 0.248861 -0.0184989 
17 1 494.247 -494.522 -257.083 0.554051 0.497583 0.605564 0.280589 
22 1 -236.512 -256.8 -252.705 0.666376 0.141646 0.726894 0.0866308 
23 1 6.7594 -258.214 -236.201 0.736085 0.209283 0.504783 0.399468 
24 1 228.048 -250.494 -237.841 0.336308 0.884822 0.321949 0.0183185 
21 1 495.677 -246.861 -239.322 0.468971 0.593758 0.631271 0.170338 
27 1 3.86761 -4.52114 -245.883 0.248651 0.56141 0.574052 0.541716 
28 1 237.831 -6.24425 -252.093 0.772698 0.203126 0.0381317 0.600186 
26 1 -242.37 -0.482016 -245.752 0.0535064 0.86407 0.0571304 0.497248 
25 1 481.517 9.09364 -241.602 0.347778 0.547076 0.450132 0.614118 
30 1 -245.316 269.898 -235.624 0.769039 0.066482 0.0985509 0.62805 
31 1 -6.45269 249.661 -232.335 0.206895 0.0631866 0.876496 0.430066 
32 1 250.64 243.532 -260.002 0.473848 0.482335 0.355562 0.645288 
29 1 499.161 263.74 -239.237 0.456546 0.457629 0.413113 0.641466 
33 1 485.915 -498.249 2.9566 0.0986512 0.196319 0.734541 0.64201 
34 1 -252.602 493.395 -0.589911 -0.0155785 0.604636 0.615447 0.505368 
35 1 7.8607 493.951 7.17744 0.142438 0.852208 0.330366 0.379885 
2 1 -261.157 -499.381 488.405 0.603 0.160912 0.670825 0.400615 
7 1 -14.0233 -252.246 497.231 0.778435 0.126716 0.40513 0.462441 
5 1 498.315 -242.876 488.694 0.217353 0.785076 0.554063 0.171543 
14 1 -243.427 253.819 496.109 0.447353 0.582543 0.0726943 0.67471 
16 1 257.67 268.206 496.851 0.520076 0.769962 0.363373 0.0681128 
1 1 491.936 496.865 499.729 0.440154 0.54887 0.609426 0.365521 
ITEM: TIMESTEP
80000
ITEM: NUMBER OF ATOMS
35
ITEM: BOX BOUNDS pp pp pp
-5.0000000000000000e+02 5.0000000000000000e+02
-5.0000000000000000e+02 5.0000000000000000e+02
-5.0000000000000000e+02 5.0000000000000000e+02
ITEM: ATOMS id type x y z c_q[1] c_q[2] c_q[3] c_q[4] 
4 1 246.184 -494.37 -496.173 0.562056 0.138134 0.726507 0.370405 
6 1 -250.955 -267.559 -494.044 0.450499 0.418278 0.600334 0.51156 
8 1 247.452 -261.342 -498.857 0.334399 0.774307 0.483481 0.234247 
9 1 -489.201 -14.3511 -488.746 0.436541 0.293496 0.133448 0.839931 
12 1 240.658 -3.48056 -495.848 0.31883 0.146614 0.717496 0.601706 
10 1 -245.087 11.0325 -497.614 0.0485231 0.0408479 0.578468 0.813236 
11 1 0.845688 4.72564 -494.779 0.670074 0.10191 0.569625 0.464911 
13 1 -491.148 242.195 -499.568 0.514701 0.10015 0.235898 0.818172 
15 1 1.78217 255.606 -498.59 0.491233 0.563639 0.499755 0.437318 
3 1 -11.7309 498.048 -491.442 0.170985 0.743023 0.422215 0.490322 
1 1 493.534 492.375 -499.478 0.414662 0.537214 0.635896 0.36755 
18 1 -249.306 -497.858 -251.661 0.448891 0.0402876 0.583641 0.675453 
19 1 2.40585 -494.211 -250.569 0.536256 0.401052 0.620294 0.408439 
20 1 243.957 -485.223 -241.261 0.702976 0.664076 0.243646 -0.0739248 
17 1 495.575 -493.328 -256.007 0.565063 0.448679 0.653188 0.229643 
22 1 -234.152 -255.071 -248.772 0.642149 0.18989 0.739779 0.0656854 
23 1 15.049 -257.812 -237.43 0.749312 0.203139 0.482968 0.404979 
24 1 231.239 -253.075 -238.877 0.337903 0.872636 0.352042 0.0198469 
21 1 496.361 -248.909 -237.011 0.481143 0.617411 0.605161 0.145208 
27 1 2.44446 -3.70429 -250.538 0.228259 0.51822 0.617565 0.545857 
28 1 236.683 -6.52303 -250.797 0.768094 0.184522 0.0791532 0.608044 
26 1 -240.271 -0.475369 -245.052 0.0746036 0.856418 0.0993022 0.50112 
25 1 480.496 9.28741 -238.05 0.341137 0.577736 0.426144 0.606835 
29 1 -494.404 268.414 -242.362 0.486035 0.403902 0.458984 0.624473 
30 1 -247.592 265.404 -228.686 0.754946 0.0745365 0.11499 0.64131 
31 1 -1.5534 255.657 -236.658 0.212684 0.0203282 0.863668 0.456541 
32 1 251.625 245.899 -257.745 0.504783 0.502082 0.31363 0.628287 
34 1 -253.172 497.506 -3.23738 -0.0393327 0.62358 0.622315 0.471514 
33 1 486.665 -497.843 1.23906 0.105625 0.211535 0.756577 0.609661 
35 1 15.4788 498.529 4.6689 0.146192 0.853206 0.358504 0.349489 
7 1 -13.322 -254.643 494.342 0.824158 0.146699 0.363365 0.408913 
5 1 499.496 -241.07 492.126 0.227485 0.780665 0.564873 0.140464 
14 1 -240.014 255.423 493.488 0.433404 0.573035 0.0962119 0.688865 
16 1 258.202 272.353 497.498 0.517361 0.765449 0.379574 0.0484563 
2 1 -254.659 497.195 487.781 0.59905 0.154136 0.690056 0.375772 
ITEM: TIMESTEP
90000
ITEM: NUMBER OF ATOMS
35
ITEM: BOX BOUNDS pp pp pp
-5.0000000000000000e+02 5.0000000000000000e+02
-5.0000000000000000e+02 5.0000000000000000e+02
-5.0000000000000000e+02 5.0000000000000000e+02
ITEM: ATOMS id type x y z c_q[1] c_q[2] c_q[3] c_q[4] 
4 1 244.461 -494.11 -494.097 0.552573 0.204982 0.724159 0.358106 
6 1 -251.157 -268.587 -493.011 0.493058 0.399328 0.608218 0.476972 
8 1 245.704 -265.841 -493.644 0.346637 0.795633 0.444268 0.222343 
9 1 -484.491 -14.562 -492.334 0.419699 0.24373 0.181463 0.855289 
12 1 242.321 -5.82269 -496.59 0.258385 0.152127 0.712858 0.633978 
10 1 -246.813 10.4574 -496.751 0.0122834 0.108027 0.581059 0.806566 
11 1 2.96604 7.66754 -495.099 0.673303 0.0653183 0.555046 0.484066 
13 1 -492.32 242.264 -498.539 0.539244 0.152713 0.241833 0.792093 
3 1 -11.244 498.292 -488.32 0.187294 0.729142 0.43263 0.496089 
1 1 490.682 494.956 -491.26 0.434838 0.541375 0.61232 0.378011 
18 1 -242.848 -494.897 -248.807 0.462823 -0.00403079 0.598342 0.654038 
19 1 -0.13283 -497.807 -250.38 0.567971 0.409818 0.579165 0.417164 
20 1 247.545 -483.304 -237.279 0.680242 0.688656 0.24401 -0.0590153 
17 1 495.586 -496.742 -252.295 0.580028 0.438634 0.637238 0.255138 
22 1 -229.757 -257.368 -249.375 0.635139 0.227828 0.735559 0.0603792 
23 1 13.6408 -257.33 -237.88 0.729982 0.233116 0.489547 0.416085 
24 1 226.217 -249.872 -236.71 0.330916 0.854545 0.400305 0.00172347 
21 1 492.191 -243.024 -237.961 0.508828 0.651888 0.547874 0.126371 
26 1 -242.86 -1.01384 -249.493 0.129414 0.82623 0.0921293 0.54047 
27 1 1.96014 -5.17445 -250.55 0.183152 0.503353 0.652873 0.535582 
28 1 235.891 -8.07897 -250.439 0.756333 0.227163 0.0949251 0.606091 
25 1 483.133 11.3812 -240.769 0.325166 0.584073 0.416998 0.615824 
29 1 -487.489 269.742 -246.597 0.505162 0.36266 0.451848 0.639627 
30 1 -250.631 266.294 -227.615 0.755478 0.0632697 0.152354 0.634065 
31 1 -2.66744 257.295 -235.916 0.157195 0.0117838 0.863827 0.478492 
32 1 247.378 241.286 -264.126 0.559714 0.433621 0.292636 0.642695 
34 1 -258.149 -498.419 -3.20954 -0.0403775 0.661379 0.611034 0.433111 
33 1 484.656 -497.964 0.347715 0.079851 0.236878 0.783356 0.569092 
35 1 15.7456 499.511 8.90722 0.131585 0.882421 0.34414 0.292551 
5 1 -495.389 -242.668 495.513 0.207412 0.787801 0.554581 0.169673 
7 1 -10.5916 -255.678 493.582 0.847346 0.131064 0.312764 0.408664 
14 1 -235.617 259.009 495.921 0.458967 0.58212 0.103068 0.663222 
15 1 2.64268 254.794 497.475 0.486277 0.568516 0.494921 0.442016 
16 1 256.839 271.627 496.861 0.519326 0.782468 0.335049 0.0760701 
2 1 -258.388 497.022 492.232 0.595974 0.112579 0.692377 0.390839 
ITEM: TIMESTEP
100000
ITEM: NUMBER OF ATOMS
35
ITEM: BOX BOUNDS pp pp pp
-5.0000000000000000e+02 5.0000000000000000e+02
-5.0000000000000000e+02 5.0000000000000000e+02
-5.0000000000000000e+02 5.0000000000000000e+02
ITEM: ATOMS id type x y z c_q[1] c_q[2] c_q[3] c_q[4] 
3 1 -8.34955 -499.719 -488.137 0.171223 0.743676 0.39332 0.512765 
4 1 241.203 -496.625 -494.791 0.524927 0.198315 0.732582 0.385287 
6 1 -253.004 -264.531 -492.241 0.511369 0.393122 0.583304 0.493673 
8 1 244.89 -262.694 -489.773 0.367839 0.790873 0.390383 0.294644 
9 1 -487.547 -15.8978 -494.67 0.454703 0.236898 0.140036 0.847062 
11 1 3.84382 15.5695 -493.274 0.698731 0.031492 0.548415 0.458285 
13 1 -499.317 245.197 -496.369 0.54638 0.184263 0.254958 0.776217 
1 1 492.86 492.826 -490.206 0.512648 0.507232 0.58267 0.374704 
18 1 -240.701 -496.024 -246.831 0.426648 -0.033416 0.605583 0.670912 
19 1 0.396145 -493.921 -246.349 0.529099 0.451917 0.58989 0.409702 
20 1 250.819 -486.449 -238.036 0.718619 0.651888 0.242067 -0.00577799 
17 1 493.789 -498.205 -258.968 0.613524 0.476257 0.591587 0.216315 
22 1 -225.91 -258.134 -248.413 0.658008 0.246414 0.709991 0.0471026 
23 1 17.3354 -253.604 -240.217 0.765637 0.23191 0.474057 0.367814 
24 1 228.6 -247.523 -238.063 0.331643 0.851147 0.405473 -0.0339534 
21 1 491.137 -242.502 -235.39 0.519997 0.62782 0.565706 0.124184 
27 1 3.8503 -2.44112 -250.171 0.179141 0.50317 0.655752 0.53359 
28 1 240.15 -5.926 -248.6 0.788153 0.226483 0.0805092 0.566603 
26 1 -245.177 3.442 -247.143 0.157619 0.801659 0.0699906 0.572364 
25 1 481.282 9.72822 -240.74 0.316514 0.576747 0.405085 0.634893 
29 1 -488.353 266.65 -248.212 0.515535 0.314683 0.41367 0.681231 
30 1 -253.458 266.804 -221.054 0.784255 0.0767669 0.145486 0.598234 
31 1 -0.861474 263.055 -239.74 0.215928 0.0100355 0.815736 0.536515 
32 1 245.413 243.376 -263.755 0.547624 0.393457 0.284946 0.681253 
34 1 -262.716 -497.922 -5.177 -0.0174354 0.663074 0.598754 0.448913 
35 1 16.2274 -496.398 12.7125 0.137545 0.873696 0.332159 0.327729 
33 1 495.058 498.41 1.77994 0.0913996 0.20285 0.794859 0.564533 
7 1 -9.55162 -254.305 495.317 0.861897 0.126871 0.265016 0.413285 
5 1 498.269 -243.771 497.89 0.194769 0.769253 0.581191 0.180368 
12 1 243.662 -7.10071 495.756 0.224207 0.192412 0.726803 0.620054 
10 1 -247.496 7.46842 498.94 -0.00806484 0.0643402 0.581496 0.810961 
14 1 -240.111 257.086 493.866 0.463469 0.551694 0.128249 0.681456 
15 1 4.07334 250.665 498.613 0.500387 0.53125 0.517359 0.446907 
16 1 255.382 271.806 494.012 0.514586 0.781729 0.352157 0.00932235 
2 1 -256.745 495.541 489.395 0.58589 0.0726985 0.697508 0.406115 
ITEM: TIMESTEP
110000
ITEM: NUMBER OF ATOMS
35
ITEM: BOX BOUNDS pp pp pp
-5.0000000000000000e+02 5.0000000000000000e+02
-5.0000000000000000e+02 5.0000000000000000e+02
-5.0000000000000000e+02 5.0000000000000000e+02
ITEM: ATOMS id type x y z c_q[1] c_q[2] c_q[3] c_q[4] 
4 1 242.677 -493.591 -493.081 0.477252 0.231568 0.770544 0.353367 
6 1 -253.095 -260.973 -492.535 0.503854 0.436646 0.577695 0.470893 
8 1 245.992 -267.048 -486.045 0.437815 0.761233 0.388109 0.279666 
5 1 491.543 -247.237 -498.864 0.208963 0.752144 0.61149 0.129201 
9 1 -487.483 -19.2265 -493.407 0.438746 0.265899 0.164435 0.842473 
11 1 7.22554 16.3327 -489.983 0.693238 0.000705289 0.538395 0.479115 
3 1 -12.4534 498.368 -494.232 0.16162 0.747593 0.412886 0.494478 
1 1 497.192 493.931 -485.929 0.545933 0.539252 0.571119 0.291526 
18 1 -242.717 -498.957 -245.606 0.425516 -0.0441801 0.633193 0.64502 
19 1 -1.35908 -493.933 -247.809 0.556782 0.49386 0.550499 0.378217 
20 1 248.357 -481.606 -236.914 0.704625 0.654631 0.271991 0.031354 
17 1 489.521 -498.189 -260.097 0.600741 0.495689 0.578572 0.242193 
22 1 -233.431 -257.277 -242.584 0.625683 0.243349 0.740398 -0.0333706 
23 1 12.4264 -254.151 -242.42 0.759223 0.208051 0.491977 0.371824 
24 1 227.793 -248.044 -243.066 0.330357 0.851027 0.404669 -0.0534785 
21 1 488.468 -237.944 -240.174 0.512031 0.668032 0.524294 0.129125 
27 1 -0.400894 -0.786276 -250.814 0.193803 0.463839 0.685688 0.526427 
28 1 240.306 -5.58172 -247.343 0.780457 0.247233 0.110147 0.563588 
26 1 -243.604 2.53355 -245.15 0.198478 0.790671 0.0760662 0.574159 
25 1 473.416 4.48723 -238.804 0.286151 0.608837 0.375013 0.637809 