ITEM: TIMESTEP
0
ITEM: NUMBER OF ATOMS
25
ITEM: BOX BOUNDS pp pp pp
-5.0000000000000000e+02 5.0000000000000000e+02
-5.0000000000000000e+02 5.0000000000000000e+02
-5.0000000000000000e+02 5.0000000000000000e+02
ITEM: ATOMS id type x y z c_q[1] c_q[2] c_q[3] c_q[4] 
1 1 -500 -500 -500 0.208016 0.648542 0.720234 0.13185 
2 1 -166.667 -500 -500 0.066654 0.617165 0.697161 0.358652 
3 1 166.667 -500 -500 0.446989 0.240491 0.715736 0.479674 
4 1 -500 -166.667 -500 0.903429 0.223148 0.302625 0.206007 
5 1 -166.667 -166.667 -500 0.686572 0.044295 0.724188 0.047003 
6 1 166.667 -166.667 -500 0.373257 0.247496 0.73477 0.509449 
7 1 -500 166.667 -500 0.291976 0.631215 0.675285 0.245578 
8 1 -166.667 166.667 -500 0.362693 0.78136 0.124454 0.492384 
9 1 166.667 166.667 -500 0.765098 0.457364 0.220085 0.39624 
10 1 -500 -500 -166.667 0.432804 0.463792 0.518811 0.573074 
11 1 -166.667 -500 -166.667 0.883006 0.453135 0.121325 0.015804 
12 1 166.667 -500 -166.667 0.65817 0.234709 0.01373 0.715218 
13 1 -500 -166.667 -166.667 0.41272 0.622843 0.50584 0.431109 
14 1 -166.667 -166.667 -166.667 0.598425 0.522271 0.192283 0.576322 
15 1 166.667 -166.667 -166.667 0.404552 0.526265 0.358847 0.65621 
16 1 -500 166.667 -166.667 0.672246 0.51052 0.34798 0.407879 
17 1 -166.667 166.667 -166.667 0.575155 0.468277 0.218806 0.634065 
18 1 166.667 166.667 -166.667 0.238689 0.298199 0.589363 0.711868 
19 1 -500 -500 166.667 0.678239 0.188846 0.703849 0.094478 
20 1 -166.667 -500 166.667 0.06348 0.640623 0.534817 0.547305 
21 1 166.667 -500 166.667 0.584213 0.553832 0.399087 0.43897 
22 1 -500 -166.667 166.667 0.589067 0.682161 0.325015 0.286394 
23 1 -166.667 -166.667 166.667 0.543633 0.450279 0.56484 0.427396 
24 1 166.667 -166.667 166.667 0.080277 0.48109 0.865697 0.112591 
25 1 -500 166.667 166.667 0.376633 0.340855 0.089674 0.856694 
ITEM: TIMESTEP
10000
ITEM: NUMBER OF ATOMS
25
ITEM: BOX BOUNDS pp pp pp
-5.0000000000000000e+02 5.0000000000000000e+02
-5.0000000000000000e+02 5.0000000000000000e+02
-5.0000000000000000e+02 5.0000000000000000e+02
ITEM: ATOMS id type x y z c_q[1] c_q[2] c_q[3] c_q[4] 
6 1 173.247 -168.51 -500.036 0.393646 0.293244 0.70604 0.510449 
4 1 497.031 -170.017 -496.751 0.894357 0.2105 0.342506 0.196227 
5 1 -167.899 -167.758 -497.033 0.689791 0.0237177 0.722374 0.0424366 
8 1 -168.844 164.031 -497.59 0.379063 0.752787 0.0692115 0.533698 
7 1 -499.58 170.317 -496.489 0.330431 0.626365 0.658917 0.253594 
9 1 165.484 172.652 -496.706 0.736162 0.464467 0.209049 0.445684 
3 1 170.04 498.603 -497.285 0.435882 0.270702 0.72887 0.453295 
11 1 -166.737 -495.239 -168.951 0.888978 0.44166 0.102796 0.0639399 
12 1 164.657 -498.564 -172.404 0.614807 0.22254 0.0284878 0.756093 
18 1 164.085 167.561 -169.954 0.223081 0.307226 0.572254 0.726892 
15 1 160.355 -167.59 -165.782 0.381484 0.547822 0.363782 0.649634 
13 1 499.202 -171.451 -159.527 0.4386 0.609533 0.505644 0.424763 
14 1 -166.482 -165.567 -162.4 0.613666 0.51747 0.14863 0.577536 
17 1 -170.491 165.565 -163.223 0.552117 0.491719 0.193488 0.644936 
16 1 -499.416 168.422 -164.472 0.651628 0.50273 0.375765 0.425962 
10 1 -499.356 497.106 -165.921 0.440794 0.429048 0.518078 0.594318 
20 1 -169.116 -496.779 164.683 0.0445758 0.622605 0.584028 0.518929 
21 1 165.956 -497.443 161.598 0.558674 0.591217 0.393595 0.428287 
22 1 499.548 -168.467 166.616 0.551646 0.695859 0.35227 0.295589 
23 1 -164.371 -161.775 168.219 0.556511 0.43509 0.568607 0.421519 
24 1 169.045 -165.235 167.9 0.0638771 0.440796 0.887953 0.114711 
25 1 -496.643 172.1 168.925 0.383181 0.31708 0.0722557 0.86453 
19 1 498.635 495.52 168.192 0.691948 0.179369 0.69457 0.0812843 
2 1 -162.312 -498.021 496.822 0.096925 0.640868 0.68826 0.325871 
1 1 495.158 496.364 498.326 0.166323 0.657509 0.717976 0.156616 
ITEM: TIMESTEP
20000
ITEM: NUMBER OF ATOMS
25
ITEM: BOX BOUNDS pp pp pp
-5.0000000000000000e+02 5.0000000000000000e+02
-5.0000000000000000e+02 5.0000000000000000e+02
-5.0000000000000000e+02 5.0000000000000000e+02
ITEM: ATOMS id type x y z c_q[1] c_q[2] c_q[3] c_q[4] 
2 1 -159.589 -498.379 -498.704 0.0231587 0.666953 0.676723 0.310939 
4 1 496.234 -175.381 -498.076 0.910605 0.216577 0.307953 0.170467 
5 1 -170.189 -164.837 -495.548 0.690681 0.067602 0.71705 0.065032 
8 1 -171.36 165.368 -496.333 0.366233 0.764652 0.0432945 0.528494 
9 1 166.836 171.363 -495.072 0.769743 0.434295 0.224498 0.410468 
7 1 497.499 176.424 -498.24 0.32926 0.612723 0.679425 0.233539 
3 1 172.886 497.902 -498.824 0.429162 0.208919 0.750295 0.457417 
11 1 -167.619 -492.836 -168.208 0.880847 0.465862 0.0739868 0.0400996 
16 1 499.659 157.971 -170.525 0.670557 0.504401 0.339309 0.425209 
18 1 170.281 172.76 -167.227 0.230945 0.34984 0.574798 0.702769 
12 1 167.836 497.957 -169.956 0.633747 0.221665 -0.0181052 0.740879 
10 1 497.855 499.728 -167.844 0.445532 0.435866 0.509099 0.593583 
13 1 495.785 -174.291 -158.059 0.439524 0.628038 0.481612 0.424778 
14 1 -161.108 -165.085 -163.676 0.638399 0.510667 0.123154 0.562583 
15 1 156.275 -166.489 -161.042 0.367957 0.57513 0.337799 0.647861 
17 1 -170.922 163.053 -163.417 0.520481 0.496714 0.191472 0.667618 
20 1 -172.912 -497.029 165.792 0.0563217 0.618698 0.590659 0.514939 
21 1 167.96 -497.782 159.601 0.577656 0.617476 0.34138 0.410482 
23 1 -160.992 -159.405 166.952 0.581151 0.418789 0.559029 0.417572 
24 1 166.407 -162.69 165.099 0.082988 0.441427 0.887713 0.101097 
22 1 499.429 -169.331 168.909 0.554872 0.688035 0.397899 0.245767 
25 1 498.785 172.47 171.449 0.369119 0.303727 0.06199 0.876161 
19 1 494.473 494.534 169.544 0.721938 0.185644 0.664083 0.0577518 
6 1 172.698 -168.582 497.252 0.420637 0.258442 0.720602 0.486831 
1 1 494.417 499.206 493.747 0.21124 0.674497 0.688084 0.164229 
ITEM: TIMESTEP
30000
ITEM: NUMBER OF ATOMS
25
ITEM: BOX BOUNDS pp pp pp
-5.0000000000000000e+02 5.0000000000000000e+02
-5.0000000000000000e+02 5.0000000000000000e+02
-5.0000000000000000e+02 5.0000000000000000e+02
ITEM: ATOMS id type x y z c_q[1] c_q[2] c_q[3] c_q[4] 
2 1 -163.901 -499.663 -499.14 0.0271658 0.669583 0.687254 0.280362 
5 1 -172.296 -165.424 -496.078 0.683193 0.0515532 0.72539 0.0663237 
6 1 178.87 -170.861 -497.362 0.421413 0.263529 0.727739 0.472609 
4 1 496.616 -176.422 -494.013 0.908714 0.206726 0.288727 0.21941 
8 1 -170.382 165.014 -496.081 0.35378 0.70854 0.0608077 0.607547 
9 1 169.369 172.848 -497.945 0.784353 0.412869 0.232814 0.400159 
16 1 -495.803 161.818 -172.027 0.666604 0.523822 0.324071 0.419795 
12 1 171.756 495.158 -170.1 0.618943 0.18869 0.0279471 0.761922 
11 1 -162.527 -487.209 -165.155 0.881555 0.459142 0.0925369 0.0590401 
10 1 498.961 -499.557 -160.576 0.427587 0.458462 0.521918 0.578432 
13 1 491.455 -175.191 -158.696 0.419165 0.630495 0.462225 0.461654 
14 1 -160.919 -165.806 -164.209 0.674297 0.433105 0.138957 0.58175 
15 1 157.596 -163.757 -157.307 0.361491 0.545018 0.340515 0.675522 
17 1 -169.496 162.03 -163.736 0.506335 0.519944 0.229226 0.648644 
18 1 169.327 171.22 -160.996 0.251898 0.333186 0.580722 0.698782 
20 1 -172.599 -492.209 164.373 0.0381251 0.608951 0.599901 0.517536 
21 1 166.294 -495.346 157.184 0.587477 0.599316 0.303584 0.45114 
22 1 -499.765 -164.913 162.459 0.526311 0.694925 0.388476 0.298601 
23 1 -162.002 -166.552 160.848 0.588915 0.407883 0.571717 0.399938 
24 1 171.117 -164.843 164.613 0.094848 0.421255 0.897019 0.0943681 
25 1 495.345 173.881 174.448 0.338055 0.348405 0.0462069 0.873039 
19 1 499.433 496.153 168.617 0.736545 0.177185 0.646618 0.089397 
1 1 498.247 -499.799 494.644 0.211867 0.651417 0.694571 0.21986 
7 1 493.931 177.564 496.68 0.285916 0.578103 0.73632 0.20465 
3 1 171.619 498.932 499.563 0.438285 0.223935 0.745367 0.449652 
ITEM: TIMESTEP
40000
ITEM: NUMBER OF ATOMS
25
ITEM: BOX BOUNDS pp pp pp
-5.0000000000000000e+02 5.0000000000000000e+02
-5.0000000000000000e+02 5.0000000000000000e+02
-5.0000000000000000e+02 5.0000000000000000e+02
ITEM: ATOMS id type x y z c_q[1] c_q[2] c_q[3] c_q[4] 
6 1 182.367 -168.184 -493.609 0.355887 0.286989 0.754171 0.471389 
4 1 495.09 -179.049 499.837 0.877188 0.209851 0.345598 0.25897 
5 1 -171.383 -164.803 -493.054 0.737421 0.0179505 0.669255 0.0893631 
8 1 -170.47 161.493 -491.874 0.341621 0.702053 0.0275971 0.624223 
9 1 171.436 175.041 -498.694 0.761511 0.399891 0.290743 0.419114 
11 1 -161.185 -491.3 -167.58 0.865908 0.487554 0.0825362 0.0753759 
16 1 -496.927 161.338 -171.323 0.681406 0.524727 0.308839 0.40616 
10 1 496.089 -491.846 -156.837 0.420214 0.463822 0.505914 0.593582 
13 1 490.51 -175.406 -163.737 0.407602 0.617766 0.48344 0.467453 
14 1 -157.72 -166.639 -165.757 0.664775 0.437775 0.178815 0.578319 
15 1 159.523 -161.199 -162.535 0.458395 0.524444 0.316074 0.64415 
17 1 -170.087 163.516 -161.266 0.514403 0.534116 0.176242 0.64734 
18 1 164.751 171.231 -163.496 0.28987 0.334615 0.582518 0.681675 
12 1 178.997 492.722 -164.326 0.604195 0.185939 0.0100184 0.774774 
20 1 -167.219 -493.032 164.02 0.0094511 0.650734 0.562121 0.510369 
21 1 169.754 -495.082 162.808 0.613682 0.600726 0.285891 0.425194 
23 1 -158.352 -169.168 163.413 0.583574 0.471168 0.555659 0.358726 
22 1 -498.772 -166.103 161.436 0.523267 0.703457 0.377001 0.298681 
24 1 168.367 -164.59 163.774 0.0782744 0.407688 0.903541 0.106195 
25 1 495.982 171.675 175.024 0.266165 0.349617 0.0160344 0.898146 
19 1 492.535 499.245 171.412 0.718108 0.133899 0.677885 0.0828485 
1 1 -497.735 499.108 494.495 0.227618 0.633867 0.693024 0.257139 
3 1 171.827 -497.544 498.728 0.399511 0.211178 0.764109 0.460361 
7 1 496.899 183.519 496.493 0.273912 0.582681 0.747777 0.162128 
2 1 -169.301 498.149 498.676 0.0130074 0.647493 0.702372 0.295392 
ITEM: TIMESTEP
50000
ITEM: NUMBER OF ATOMS
25
ITEM: BOX BOUNDS pp pp pp
-5.0000000000000000e+02 5.0000000000000000e+02
-5.0000000000000000e+02 5.0000000000000000e+02
-5.0000000000000000e+02 5.0000000000000000e+02
ITEM: ATOMS id type x y z c_q[1] c_q[2] c_q[3] c_q[4] 
3 1 167.366 -492.963 -499.342 0.418294 0.21222 0.757064 0.454805 
5 1 -167.55 -168.703 -491.012 0.734299 0.0204974 0.675661 0.0621895 
6 1 177.446 -170.03 -494.255 0.398232 0.228213 0.739709 0.492097 
8 1 -166.473 165.821 -488.316 0.332776 0.685816 0.0063357 0.647206 
9 1 167.09 175.77 -496.392 0.786459 0.404621 0.272657 0.378711 
11 1 -161.702 -495.616 -171.825 0.856923 0.491182 0.121568 0.0982062 
14 1 -158.711 -169.018 -167.551 0.644192 0.450875 0.224119 0.575759 
16 1 -498.268 158.023 -176.768 0.681477 0.525256 0.308993 0.405239 
10 1 497.909 -486.498 -152.638 0.400891 0.457276 0.546868 0.575431 
13 1 487.675 -179.593 -165.705 0.372116 0.596287 0.549758 0.451373 
15 1 155.04 -158.185 -160.328 0.478023 0.487954 0.32324 0.654913 
17 1 -172.887 164.289 -156.63 0.512245 0.527121 0.181944 0.65318 
18 1 165.326 175.346 -163.266 0.291226 0.302594 0.56937 0.706712 
12 1 180.128 496.271 -158.661 0.563433 0.176666 -0.0170214 0.806872 
20 1 -167.908 -490.615 164.94 0.0419454 0.652388 0.573373 0.493836 
21 1 171.233 -497.037 162.226 0.663637 0.596731 0.262883 0.366592 
22 1 -499.207 -167.36 162.127 0.525166 0.712035 0.386238 0.260821 
23 1 -159.046 -167.205 161.576 0.586676 0.453176 0.56551 0.361442 
24 1 168.207 -164.207 166.509 0.0696202 0.496227 0.86366 0.0547949 
19 1 492.104 -493.576 169.441 0.713102 0.180893 0.675502 0.0496069 
25 1 496.296 172.38 171.833 0.231703 0.305376 0.0233429 0.923317 
4 1 492.035 -180.073 498.256 0.871123 0.232039 0.349252 0.255589 
7 1 491.235 181.364 494.244 0.271724 0.569001 0.759456 0.160098 
1 1 -497.352 499.174 492.111 0.25273 0.622909 0.705496 0.22447 
2 1 -171.227 494.968 493.668 -0.000149218 0.647024 0.699527 0.303352 
ITEM: TIMESTEP
60000
ITEM: NUMBER OF ATOMS
25
ITEM: BOX BOUNDS pp pp pp
-5.0000000000000000e+02 5.0000000000000000e+02
-5.0000000000000000e+02 5.0000000000000000e+02
-5.0000000000000000e+02 5.0000000000000000e+02
ITEM: ATOMS id type x y z c_q[1] c_q[2] c_q[3] c_q[4] 
3 1 168.752 -490.953 -499.239 0.390271 0.191098 0.75897 0.484908 
6 1 177.001 -172.502 -496.945 0.399279 0.19547 0.740835 0.50352 
5 1 -169.025 -164.199 -489.609 0.747255 0.0334473 0.660508 0.0649577 
8 1 -166.346 164.209 -487.992 0.357207 0.684915 0.00698315 0.635016 
9 1 161.345 174.817 -489.581 0.745578 0.410146 0.304039 0.428316 
14 1 -159.425 -173.848 -168.911 0.639401 0.44389 0.243902 0.57848 
16 1 -496.144 155.227 -175.999 0.671846 0.526388 0.368597 0.368341 
10 1 496.862 -485.01 -149.612 0.360643 0.418374 0.615382 0.562321 
13 1 487.185 -178.756 -165.934 0.387848 0.596481 0.551577 0.435371 
15 1 152.39 -156.589 -159.284 0.53402 0.494134 0.328107 0.602494 
17 1 -170.622 167.358 -154.497 0.532313 0.530161 0.187222 0.632867 
18 1 171.427 176.318 -162.083 0.285509 0.258907 0.568207 0.727044 
11 1 -157.545 497.358 -165.134 0.85843 0.487484 0.105872 0.119366 
12 1 182.594 496.156 -153.975 0.561883 0.152 0.00779164 0.813094 
20 1 -166.288 -491.795 161.268 -0.0192359 0.622977 0.581186 0.523213 
19 1 491.859 -490.483 166.804 0.728711 0.210887 0.646815 0.0783472 
23 1 -158.39 -169.487 160.744 0.567276 0.423578 0.585816 0.39446 
22 1 498.526 -166.62 160.059 0.480237 0.740815 0.388812 0.263422 
24 1 165.925 -166.008 160.562 0.0616517 0.509328 0.855328 0.0720938 
21 1 167.782 -495.913 165.829 0.641878 0.606349 0.282227 0.375075 
25 1 494.79 178.935 172.084 0.258206 0.359183 0.0491206 0.895491 
4 1 491.339 -178.182 -497.707 0.883753 0.240372 0.296787 0.270407 
7 1 488.947 184.414 493.054 0.226763 0.579542 0.767473 0.153929 
1 1 -492.636 499.267 490.861 0.29569 0.601872 0.699636 0.246631 
2 1 -171.8 493.361 487.988 0.00914875 0.667508 0.666823 0.331204 
ITEM: TIMESTEP
70000
ITEM: NUMBER OF ATOMS
25
ITEM: BOX BOUNDS pp pp pp
-5.0000000000000000e+02 5.0000000000000000e+02
-5.0000000000000000e+02 5.0000000000000000e+02
-5.0000000000000000e+02 5.0000000000000000e+02
ITEM: ATOMS id type x y z c_q[1] c_q[2] c_q[3] c_q[4] 
3 1 171.269 -492.952 -496.099 0.362278 0.206186 0.779081 0.468269 
6 1 174.024 -176.102 -499.242 0.416504 0.19855 0.729602 0.504761 
4 1 494.026 -174.946 -499.113 0.888488 0.240575 0.291417 0.260363 
5 1 -175.14 -164.124 -485.969 0.71688 0.032676 0.692917 0.0698683 
8 1 -160.28 168.283 -489.408 0.366285 0.693007 -0.00480765 0.62093 
9 1 162.703 175.833 -486.777 0.749925 0.409821 0.324983 0.405025 
14 1 -159.631 -172.2 -167.165 0.606371 0.450613 0.232393 0.612581 
16 1 -492.945 161.446 -180.566 0.646775 0.536972 0.374073 0.391678 
11 1 -161.089 494.023 -170.266 0.867191 0.483329 0.0699562 0.0973588 
10 1 494.56 -486.594 -156.294 0.347489 0.407753 0.62504 0.567727 
13 1 493.404 -180.573 -166.45 0.406966 0.618062 0.52774 0.416974 
15 1 153.878 -161.253 -163.543 0.535208 0.46637 0.335718 0.619148 
17 1 -169.776 167.801 -151.61 0.522568 0.464412 0.148029 0.699522 
18 1 174.854 178.704 -157.681 0.28435 0.244249 0.620697 0.688639 
12 1 183.465 496.655 -156.036 0.588143 0.108435 0.0332722 0.800764 
20 1 -166.332 -492.833 158.54 -0.0351196 0.634478 0.597482 0.4891 
21 1 173.053 -496.781 165.618 0.638661 0.637144 0.270091 0.336468 
19 1 488.344 -491.992 162.702 0.697041 0.231121 0.670257 0.107109 
23 1 -162.99 -175.069 158.955 0.559162 0.407897 0.573095 0.438771 
24 1 160.131 -167.607 160.191 0.022234 0.508508 0.856404 0.0865839 
22 1 493.864 -161.795 159.639 0.436655 0.752726 0.417456 0.261661 
25 1 494.356 182.996 176.143 0.256497 0.392056 0.0733111 0.880413 
7 1 490.452 180.311 490.534 0.233681 0.548394 0.78375 0.174338 
1 1 -491.654 498.239 488.53 0.296204 0.594648 0.702274 0.255868 
2 1 -170.833 492.207 484.186 -0.00805034 0.681373 0.646142 0.343752 
ITEM: TIMESTEP
80000
ITEM: NUMBER OF ATOMS
25
ITEM: BOX BOUNDS pp pp pp
-5.0000000000000000e+02 5.0000000000000000e+02
-5.0000000000000000e+02 5.0000000000000000e+02
-5.0000000000000000e+02 5.0000000000000000e+02
ITEM: ATOMS id type x y z c_q[1] c_q[2] c_q[3] c_q[4] 
3 1 170.929 -496.929 499.516 0.410189 0.235422 0.758987 0.447503 
5 1 -172.523 -170.13 -484.757 0.719738 0.0500127 0.686918 0.0872929 
8 1 -163.781 167.324 -488.308 0.39326 0.716733 0.0269289 0.575252 
9 1 163.291 179.294 -485.738 0.730618 0.410133 0.355469 0.414283 
16 1 -491.802 162.687 -186.731 0.641851 0.523627 0.396342 0.395923 
10 1 499.381 -484.433 -153.587 0.370289 0.402995 0.579285 0.604077 
14 1 -156.581 -170.422 -162.412 0.587663 0.462088 0.24293 0.618152 
13 1 492.011 -185.067 -167.156 0.416969 0.634184 0.541881 0.360989 
15 1 153.796 -159.54 -162.093 0.486418 0.482243 0.364717 0.63073 
17 1 -165.048 167.891 -145.51 0.515774 0.480897 0.176074 0.686814 
18 1 179.729 179.352 -156.984 0.247286 0.221131 0.630066 0.702117 
11 1 -166.201 494.978 -161.718 0.854078 0.49766 0.0751855 0.131274 
12 1 182.776 492.709 -157.541 0.616063 0.122662 0.0265106 0.777636 
20 1 -167.977 -488.869 158.558 -0.0655098 0.661099 0.565107 0.489194 
21 1 171.67 -496.818 160.401 0.61742 0.621495 0.307272 0.371646 
19 1 492.921 -493.59 159.299 0.730218 0.237483 0.626577 0.133356 
23 1 -159.442 -173.389 156.637 0.550335 0.372715 0.564996 0.48887 
24 1 158.699 -173.071 160.731 0.0709122 0.45029 0.886362 0.0810667 
22 1 489.08 -160.823 159.779 0.488139 0.715772 0.399406 0.299777 
25 1 495.805 181.892 177.018 0.222164 0.359611 0.0735662 0.903278 
6 1 175.679 -175.025 497.47 0.416917 0.194599 0.729904 0.505521 
4 1 495.808 -177.807 -499.859 0.892845 0.260178 0.263172 0.256661 
7 1 484.19 174.855 489.767 0.236988 0.558304 0.765616 0.214395 
1 1 -494.413 498.586 487.715 0.341878 0.628041 0.663835 0.219105 
2 1 -167.001 492.411 487.794 -0.0200928 0.684381 0.642363 0.344368 
ITEM: TIMESTEP
90000
ITEM: NUMBER OF ATOMS
25
ITEM: BOX BOUNDS pp pp pp
-5.0000000000000000e+02 5.0000000000000000e+02
-5.0000000000000000e+02 5.0000000000000000e+02
-5.0000000000000000e+02 5.0000000000000000e+02
ITEM: ATOMS id type x y z c_q[1] c_q[2] c_q[3] c_q[4] 
5 1 -173.432 -172.014 -481.94 0.764617 0.0246151 0.637618 0.0905427 
6 1 173.748 -171.363 -496.724 0.423833 0.127719 0.750934 0.490053 
8 1 -164.694 168.827 -486.922 0.423285 0.710977 -0.0447137 0.559769 
9 1 160.376 176.152 -483.245 0.717881 0.392471 0.3634 0.445594 
16 1 -493.244 164.01 -184.698 0.626342 0.513755 0.439693 0.387843 
10 1 497.411 -489.974 -155.667 0.414367 0.376997 0.589999 0.581442 
14 1 -151.015 -171.351 -161.548 0.59896 0.468011 0.261329 0.594911 
13 1 491.519 -177.609 -163.537 0.440399 0.660943 0.498709 0.347121 
15 1 150.303 -159.499 -165.931 0.530209 0.483491 0.360936 0.595684 
17 1 -160.586 171.414 -144.478 0.498131 0.514315 0.159443 0.67965 
18 1 177.409 176.959 -160.196 0.299956 0.189376 0.637633 0.683804 
11 1 -165.096 489.376 -160.05 0.856795 0.47262 0.134617 0.156238 
12 1 182.644 493.316 -154.282 0.610038 0.116484 0.0570512 0.781684 
20 1 -166.044 -488.194 156.088 -0.0662023 0.625871 0.603963 0.48901 
21 1 170.162 -496.878 160.588 0.649171 0.635814 0.214612 0.358134 
19 1 492.579 -493.843 164.691 0.673066 0.216503 0.687022 0.167658 
23 1 -161.122 -174.767 158.182 0.535306 0.405553 0.575842 0.466241 
24 1 158.008 -172.974 162.229 0.0593376 0.450584 0.878546 0.147002 
22 1 485.729 -165.956 160.202 0.484505 0.734077 0.420919 0.22184 
25 1 490.146 178.978 176.034 0.242694 0.369551 0.0670312 0.894449 
3 1 173.99 -496.27 497.773 0.36468 0.219053 0.755425 0.498355 
4 1 497.415 -183.901 498.957 0.910348 0.227753 0.275333 0.208774 
7 1 486.629 175.645 489.311 0.241297 0.562299 0.760109 0.2187 
1 1 -495.889 498.875 491.433 0.278973 0.639658 0.677147 0.233416 
2 1 -168.687 487.337 491.14 -0.0336953 0.700729 0.62855 0.33581 
ITEM: TIMESTEP
100000
ITEM: NUMBER OF ATOMS
25
ITEM: BOX BOUNDS pp pp pp
-5.0000000000000000e+02 5.0000000000000000e+02
-5.0000000000000000e+02 5.0000000000000000e+02
-5.0000000000000000e+02 5.0000000000000000e+02
ITEM: ATOMS id type x y z c_q[1] c_q[2] c_q[3] c_q[4] 
4 1 -496.691 -186.733 -499.018 0.911837 0.175865 0.276395 0.247447 
5 1 -169.98 -176.956 -475.501 0.740799 0.0490394 0.658466 0.123426 
6 1 172.366 -168.211 -498.447 0.355157 0.110182 0.779719 0.503748 
8 1 -166.934 168.5 -486.927 0.438744 0.691231 -0.0511252 0.571918 
9 1 159.303 180.432 -481.546 0.679769 0.397909 0.391285 0.475898 
16 1 -490.287 167.873 -189.03 0.635517 0.496509 0.450422 0.383036 
10 1 496.665 -493.001 -152.24 0.447568 0.362399 0.565646 0.590249 
14 1 -154.924 -167.412 -166.087 0.621752 0.468969 0.235249 0.581507 
13 1 491.211 -178.985 -162.959 0.452183 0.658234 0.500299 0.334603 
15 1 152.396 -152.729 -166.083 0.510123 0.506069 0.370517 0.588545 
17 1 -157.779 171.891 -143.765 0.531369 0.521582 0.168131 0.646011 
18 1 177.226 180.542 -161.227 0.285966 0.214429 0.63232 0.687324 
11 1 -169.557 494.481 -156.272 0.843363 0.478539 0.141596 0.199223 
12 1 183.442 493.18 -161.791 0.603915 0.0734786 0.0770898 0.789902 
20 1 -165.461 -487.188 153.835 -0.118184 0.615743 0.600551 0.496217 
21 1 172.209 -499.516 156.97 0.71133 0.585581 0.234002 0.3104 
19 1 496.288 -495.519 162.511 0.663023 0.233708 0.695623 0.147954 
23 1 -162.794 -175.987 159.038 0.562186 0.359856 0.565309 0.484641 
24 1 154.492 -173.584 159.617 -0.00300297 0.477689 0.867125 0.141063 
22 1 486.94 -165.983 158.233 0.494665 0.750465 0.417115 0.134626 
25 1 490.939 180.187 176.962 0.221965 0.388426 0.027416 0.893927 
1 1 -497.318 -495.299 494.278 0.275238 0.643665 0.679581 0.219338 
3 1 172.694 -495.909 496.614 0.35983 0.261535 0.733251 0.514261 
7 1 490.502 177.867 490.674 0.207224 0.541661 0.785133 0.217318 
2 1 -169.692 491.97 493.733 -0.0515806 0.721849 0.617905 0.307354 
ITEM: TIMESTEP
110000
ITEM: NUMBER OF ATOMS
25
ITEM: BOX BOUNDS pp pp pp
-5.0000000000000000e+02 5.0000000000000000e+02
-5.0000000000000000e+02 5.0000000000000000e+02
-5.0000000000000000e+02 5.0000000000000000e+02
ITEM: ATOMS id type x y z c_q[1] c_q[2] c_q[3] c_q[4] 
4 1 -499.577 -189.75 -498.577 0.899472 0.211088 0.281058 0.259611 
5 1 -170.388 -178.461 -476.573 0.747517 0.055948 0.6488 0.130942 
6 1 170.027 -173.769 -497.598 0.326507 0.0848824 0.770992 0.540147 
8 1 -168.373 163.998 -490.443 0.444888 0.683266 -0.116512 0.56714 
9 1 155.46 179.195 -484.334 0.729207 0.389262 0.365449 0.427995 
13 1 488.705 -185.304 -173.369 0.472729 0.63425 0.480645 0.378464 
15 1 157.802 -149.102 -167.306 0.492429 0.562415 0.346552 0.566662 
16 1 -491.731 171.385 -188.996 0.673637 0.438882 0.471623 0.36217 
10 1 -498.097 -491.133 -155.817 0.428918 0.391556 0.590409 0.560473 
14 1 -159.727 -170.36 -163.841 0.587775 0.484219 0.247532 0.598983 
17 1 -159.729 172.315 -141.196 0.555027 0.517799 0.112267 0.641268 
18 1 174.668 183.378 -162.291 0.25817 0.201806 0.65526 0.680629 
11 1 -164.927 488.95 -150.853 0.858627 0.450426 0.146395 0.196074 
12 1 183.29 491.812 -163.049 0.575716 0.0474691 0.0771059 0.812621 
19 1 -493.606 -495.096 164.623 0.696732 0.236778 0.662361 0.140633 
20 1 -165.051 -489.159 151.743 -0.105851 0.618427 0.585796 0.513017 
21 1 173.716 -498.246 164.093 0.706669 0.584485 0.276208 0.287584 
23 1 -159.975 -179.542 163.459 0.55376 0.353264 0.570156 0.493433 
24 1 155.498 -176.306 161.155 -0.0250861 0.517629 0.844937 0.132336 
22 1 489.584 -172.144 155.542 0.533071 0.745122 0.382967 0.118175 
25 1 490.322 180.15 176.982 0.193837 0.397792 0.0450627 0.895633 
1 1 -496.175 -493.597 492.832 0.258452 0.682262 0.663501 0.165791 
3 1 178.182 -494.024 498.998 0.339314 0.259599 0.731615 0.531238 
7 1 488.656 178.81 494.747 0.239408 0.541105 0.767291 0.247294 
2 1 -166.83 496.575 494.38 -0.0558941 0.703562 0.63355 0.317003 
ITEM: TIMESTEP
120000
ITEM: NUMBER OF ATOMS
25
ITEM: BOX BOUNDS pp pp pp
-5.0000000000000000e+02 5.0000000000000000e+02
-5.0000000000000000e+02 5.0000000000000000e+02
-5.0000000000000000e+02 5.0000000000000000e+02
ITEM: ATOMS id type x y z c_q[1] c_q[2] c_q[3] c_q[4] 
3 1 181.305 -490.919 -496.769 0.33717 0.25802 0.730706 0.534613 
5 1 -170.571 -183.797 -479.489 0.730202 0.0443326 0.65295 0.196206 
6 1 169.555 -175.244 -499.006 0.335022 0.0954948 0.758746 0.550404 
8 1 -172.286 163.833 -486.635 0.433953 0.692752 -0.0747276 0.571135 
9 1 154.929 180.672 -487.919 0.72794 0.393022 0.357597 0.433314 
13 1 488.119 -178.342 -172.211 0.477152 0.6271 0.501103 0.357726 
15 1 156.915 -155.102 -168.089 0.494136 0.561292 0.3645 0.554906 
16 1 -494.311 172.794 -183.271 0.631477 0.473102 0.505914 0.348513 
10 1 498.633 -493.539 -150.269 0.414189 0.371364 0.629227 0.542779 
14 1 -162.209 -168.62 -163.174 0.613109 0.464526 0.242806 0.591065 
17 1 -162.177 171.896 -144.599 0.506608 0.538335 0.143485 0.657994 
18 1 176.247 180.777 -162.595 0.218458 0.181953 0.6628 0.692723 
11 1 -159.838 489.961 -155.255 0.867741 0.443654 0.202565 0.0957337 
12 1 188.263 492.696 -164.738 0.595641 0.0175539 0.0898642 0.798015 
19 1 -495.169 -489.435 164.77 0.711469 0.187393 0.660891 0.148053 
20 1 -170.134 -488.015 146.7 -0.125645 0.640566 0.589167 0.476205 
23 1 -161.86 -177.138 156.208 0.537297 0.359376 0.601664 0.469213 
24 1 156.272 -176.873 160.953 -0.0363406 0.542443 0.836955 0.0627791 
22 1 489.199 -170.59 160.197 0.49292 0.725386 0.471547 0.0921332 
21 1 168.933 496.933 164.172 0.71361 0.574274 0.271061 0.295797 
25 1 490.117 177.374 179.136 0.233718 0.394875 0.0668969 0.885988 
1 1 -493.741 -493.24 493.935 0.191429 0.684718 0.680705 0.176514 
4 1 499.472 -185.49 497.095 0.89059 0.199353 0.307675 0.269153 
7 1 488.956 183.737 492.953 0.211548 0.58243 0.736594 0.271022 
2 1 -162.895 498.526 494.775 -0.0621463 0.721899 0.626965 0.286208 
ITEM: TIMESTEP
130000
ITEM: NUMBER OF ATOMS
25
ITEM: BOX BOUNDS pp pp pp
-5.0000000000000000e+02 5.0000000000000000e+02
-5.0000000000000000e+02 5.0000000000000000e+02
-5.0000000000000000e+02 5.0000000000000000e+02
ITEM: ATOMS id type x y z c_q[1] c_q[2] c_q[3] c_q[4] 
3 1 180.305 -490.696 -499.197 0.365709 0.207587 0.745866 0.516574 
5 1 -170.59 -191.757 -475.718 0.711619 0.00539272 0.67637 0.18998 
6 1 171.447 -172.254 -490.651 0.370793 0.111028 0.748421 0.538565 
8 1 -172.481 166.307 -489.066 0.485833 0.679119 -0.11523 0.538039 
9 1 151.101 182.253 -490.109 0.712871 0.346048 0.332167 0.511597 
2 1 -157.037 496.402 -500.124 -0.067595 0.689345 0.663212 0.283522 
14 1 -162.02 -167.915 -165.475 0.61859 0.476205 0.235998 0.578689 
13 1 495.017 -176.234 -167.942 0.443282 0.675477 0.46365 0.363676 
16 1 -491.386 172.78 -181.445 0.603377 0.4677 0.534058 0.363283 
10 1 -498.694 -489.66 -147.07 0.445099 0.395814 0.614693 0.51708 
15 1 156.779 -156.106 -161.055 0.463107 0.599845 0.337839 0.558196 
17 1 -159.144 173.104 -142.44 0.521779 0.542577 0.192498 0.629524 
18 1 180.849 180.876 -162.057 0.243452 0.153041 0.657412 0.696505 
11 1 -162.618 490.069 -152.436 0.870527 0.439846 0.19668 0.100178 
12 1 191.526 493.129 -163.182 0.619277 0.0353289 0.0870373 0.779534 
19 1 -495.305 -488.748 162.511 0.7004 0.172416 0.671421 0.170018 
20 1 -170.068 -489.331 149.473 -0.135749 0.630588 0.590018 0.485603 
21 1 172.761 -495.666 162.483 0.722256 0.551602 0.291563 0.298449 
23 1 -164.983 -176.359 157.851 0.532506 0.415503 0.624656 0.391918 
24 1 156.35 -174.329 159.579 -0.0375595 0.544421 0.835228 0.0677413 
22 1 488.405 -173.341 158.012 0.475478 0.739508 0.458285 0.130477 
25 1 495.033 176.456 177.84 0.232484 0.422457 0.0652931 0.873624 
1 1 -496.322 -492.183 493.262 0.180295 0.693515 0.680886 0.151409 
4 1 498.033 -177.589 497.748 0.893166 0.206439 0.286883 0.278092 
7 1 482.843 187.179 486.098 0.228097 0.578053 0.746624 0.237444 
ITEM: TIMESTEP
140000
ITEM: NUMBER OF ATOMS
25
ITEM: BOX BOUNDS pp pp pp
-5.0000000000000000e+02 5.0000000000000000e+02
-5.0000000000000000e+02 5.0000000000000000e+02
-5.0000000000000000e+02 5.0000000000000000e+02
ITEM: ATOMS id type x y z c_q[1] c_q[2] c_q[3] c_q[4] 
3 1 183.551 -484.64 -495.635 0.3956 0.296349 0.735654 0.463131 
4 1 -498.224 -174.405 -498.472 0.860351 0.246518 0.358815 0.265098 
5 1 -173.153 -195.592 -472.203 0.746158 0.0328962 0.649412 0.142935 
6 1 169.122 -169.984 -490.822 0.320552 0.12963 0.755651 0.556268 
8 1 -172.229 165.815 -488.705 0.451205 0.668315 -0.104012 0.582195 
9 1 149.073 179.474 -489.009 0.715596 0.34937 0.343429 0.497914 
13 1 489.998 -171.157 -170.001 0.419383 0.675467 0.507291 0.332443 
14 1 -161.306 -162.774 -167.601 0.626567 0.487368 0.263362 0.548203 
16 1 -490.605 174.616 -182.475 0.6492 0.466957 0.481226 0.359043 
10 1 -495.349 -493.969 -144.322 0.472255 0.319519 0.565368 0.596022 
15 1 157.74 -156.137 -160.971 0.442991 0.628858 0.360749 0.527405 
17 1 -155.51 174.809 -142.35 0.538127 0.528502 0.217816 0.619404 
18 1 179.48 181.661 -159.077 0.279952 0.12651 0.642059 0.702412 
11 1 -160.998 491.371 -151.982 0.865688 0.450031 0.198338 0.0933724 
12 1 193.511 -499.77 -163.167 0.656952 0.0507215 0.059592 0.74986 
20 1 -175.377 -484.477 151.142 -0.116377 0.619712 0.586941 0.507852 
21 1 167.505 -495.94 160.499 0.717108 0.558281 0.307146 0.282382 
19 1 497.698 -490.273 160.258 0.70745 0.170188 0.672791 0.133798 
23 1 -168.242 -176.689 151.548 0.506682 0.438805 0.63917 0.377075 
24 1 157.966 -172.245 160.399 -0.042483 0.570103 0.817886 0.0651214 
22 1 490.065 -168.548 157.958 0.454722 0.737918 0.469451 0.16829 
25 1 497.814 178.865 171.921 0.261968 0.411081 0.0499089 0.871719 
1 1 -493.008 -492.137 491.665 0.159244 0.691348 0.687456 0.155188 
7 1 482.519 180.434 483.168 0.200083 0.584045 0.748851 0.240997 
2 1 -162.166 489.281 496.473 -0.0830901 0.687621 0.671684 0.262895 
ITEM: TIMESTEP
150000
ITEM: NUMBER OF ATOMS
25
ITEM: BOX BOUNDS pp pp pp
-5.0000000000000000e+02 5.0000000000000000e+02
-5.0000000000000000e+02 5.0000000000000000e+02
-5.0000000000000000e+02 5.0000000000000000e+02
ITEM: ATOMS id type x y z c_q[1] c_q[2] c_q[3] c_q[4] 
3 1 182.277 -482.294 -498.243 0.376644 0.333968 0.710261 0.492072 
4 1 -492.819 -174.309 -496.587 0.846598 0.242203 0.380645 0.282345 
5 1 -172.27 -195.555 -479.786 0.774648 0.0191168 0.615726 0.142955 
6 1 169.09 -171.15 -489.213 0.311401 0.129815 0.761317 0.553692 
8 1 -179.05 169.778 -487.606 0.471498 0.692121 -0.093071 0.538513 
9 1 152.281 177.252 -492.989 0.705473 0.385062 0.394716 0.445235 
2 1 -162.947 487.083 -499.667 -0.0875605 0.673879 0.677824 0.280668 
13 1 486.742 -170.099 -174.419 0.455558 0.644013 0.499073 0.358665 
14 1 -164.611 -163.988 -167.819 0.622634 0.451268 0.267859 0.580462 
16 1 -488.047 167.865 -177.396 0.688009 0.444412 0.41732 0.393682 