ITEM: TIMESTEP
0
ITEM: NUMBER OF ATOMS
45
ITEM: BOX BOUNDS pp pp pp
-5.0000000000000000e+02 5.0000000000000000e+02
-5.0000000000000000e+02 5.0000000000000000e+02
-5.0000000000000000e+02 5.0000000000000000e+02
ITEM: ATOMS id type x y z c_q[1] c_q[2] c_q[3] c_q[4] 
1 1 -500 -500 -500 0.490033 0.18353 0.396729 0.754182 
2 1 -250 -500 -500 0.499654 0.350741 0.710292 0.350446 
3 1 0 -500 -500 0.270603 0.643028 0.552207 0.456461 
4 1 250 -500 -500 0.209132 0.814325 0.235246 0.487645 
5 1 -500 -250 -500 0.409424 0.342805 0.424688 0.731093 
6 1 -250 -250 -500 0.001787 0.462096 0.700829 0.543418 
7 1 0 -250 -500 0.475965 0.818237 0.299277 0.119911 
8 1 250 -250 -500 0.740576 0.153574 0.337459 0.560431 
9 1 -500 0 -500 0.35639 0.784037 0.156013 0.483665 
10 1 -250 0 -500 0.632394 0.55526 0.497992 0.209209 
11 1 0 0 -500 0.184279 0.755411 0.03083 0.628048 
12 1 250 0 -500 0.518001 0.353199 0.428936 0.650338 
13 1 -500 250 -500 0.465176 0.437352 0.600003 0.482006 
14 1 -250 250 -500 0.711196 0.210899 0.129949 0.657902 
15 1 0 250 -500 0.524172 0.775238 0.106248 0.336096 
16 1 250 250 -500 0.686957 0.145749 0.613908 0.360507 
17 1 -500 -500 -250 0.490595 0.557857 0.181626 0.644302 
18 1 -250 -500 -250 0.347209 0.371764 0.491842 0.706632 
19 1 0 -500 -250 0.105805 0.50181 0.807124 0.292476 
20 1 250 -500 -250 0.40116 0.625802 0.173598 0.645993 
21 1 -500 -250 -250 0.840628 0.171108 0.051373 0.511299 
22 1 -250 -250 -250 0.419048 0.51987 0.047511 0.742884 
23 1 0 -250 -250 0.076748 0.615271 0.747767 0.237478 
24 1 250 -250 -250 0.784217 0.575658 0.157412 0.16983 
25 1 -500 0 -250 0.283843 0.16435 0.260307 0.908109 
26 1 -250 0 -250 0.641344 0.633734 0.376847 0.21224 
27 1 0 0 -250 0.796035 0.51876 0.311627 0.010256 
28 1 250 0 -250 0.237732 0.676805 0.389822 0.577457 
29 1 -500 250 -250 0.79872 0.47406 0.309677 0.203504 
30 1 -250 250 -250 0.619579 0.357698 0.414053 0.562792 
31 1 0 250 -250 0.561682 0.195079 0.612153 0.521273 
32 1 250 250 -250 0.810727 0.451343 0.277834 0.248633 
33 1 -500 -500 0 0.686395 0.690597 0.224733 0.037848 
34 1 -250 -500 0 0.284767 0.354941 0.20071 0.867549 
35 1 0 -500 0 0.257466 0.433458 0.573868 0.645368 
36 1 250 -500 0 0.630392 0.518927 0.371973 0.44154 
37 1 -500 -250 0 0.370602 0.819039 0.203017 0.388089 
38 1 -250 -250 0 0.0456 0.367705 0.711863 0.596627 
39 1 0 -250 0 0.339748 0.375399 0.698344 0.505927 
40 1 250 -250 0 0.686769 0.426701 0.543174 0.226354 
41 1 -500 0 0 0.492478 0.275708 0.40179 0.721121 
42 1 -250 0 0 0.710695 0.117947 0.076897 0.689266 
43 1 0 0 0 0.666767 0.412268 0.471608 0.403785 
44 1 250 0 0 0.498926 0.489791 0.110128 0.706434 
45 1 -500 250 0 0.361183 0.740053 0.304376 0.478774 
ITEM: TIMESTEP
10000
ITEM: NUMBER OF ATOMS
45
ITEM: BOX BOUNDS pp pp pp
-5.0000000000000000e+02 5.0000000000000000e+02
-5.0000000000000000e+02 5.0000000000000000e+02
-5.0000000000000000e+02 5.0000000000000000e+02
ITEM: ATOMS id type x y z c_q[1] c_q[2] c_q[3] c_q[4] 
1 1 494.298 -499.774 -498.353 0.515448 0.172981 0.381007 0.747813 
10 1 -252.521 0.157668 -498.173 0.644496 0.563931 0.467627 0.218932 
13 1 -499.086 247.743 -500.184 0.512952 0.462175 0.566923 0.449303 
14 1 -245.63 247.892 -499.247 0.711035 0.242439 0.10089 0.652284 
18 1 -248.462 -497.419 -249.075 0.350844 0.363701 0.520888 0.687972 
21 1 -493.388 -253.953 -251.169 0.849678 0.17935 0.029731 0.494972 
22 1 -250.623 -243.884 -250.832 0.440382 0.513824 0.0734665 0.732565 
23 1 2.86502 -248.618 -250.041 0.0867518 0.558149 0.790678 0.236161 
24 1 247.768 -248.422 -256.843 0.790343 0.5556 0.18 0.185115 
26 1 -255.303 -0.944064 -243.792 0.653998 0.652026 0.325236 0.203396 
27 1 1.36876 1.08574 -250.589 0.809886 0.527047 0.254148 0.0414066 
28 1 247.26 2.3831 -251.603 0.264931 0.633773 0.409916 0.600093 
25 1 498.341 1.91337 -250.475 0.249085 0.131217 0.275187 0.919245 
30 1 -246.837 246.246 -249.307 0.617333 0.38178 0.409495 0.552683 
31 1 2.11176 250.845 -252.551 0.545883 0.219526 0.630055 0.506805 
32 1 250.951 246.032 -250.33 0.815642 0.451189 0.287358 0.220415 
29 1 498.109 253.076 -250.47 0.795389 0.47001 0.337757 0.179908 
19 1 -0.115995 498.84 -248.551 0.0800947 0.488478 0.826828 0.267074 
20 1 247.48 489.84 -252.636 0.362895 0.629512 0.174209 0.664585 
17 1 495.619 495.945 -247.823 0.492345 0.558482 0.217211 0.63128 
36 1 245.367 -496.36 -7.21557 0.654889 0.528235 0.352705 0.409497 
38 1 -251.052 -249.358 0.414847 0.0411685 0.380239 0.697843 0.605589 
39 1 2.96001 -248.991 -0.366652 0.359984 0.369547 0.70116 0.492159 
37 1 500.258 -249.06 -3.24044 0.389053 0.815719 0.19711 0.379983 
43 1 -4.10559 4.07269 -5.71396 0.654562 0.426576 0.462163 0.419508 
45 1 498.936 251.43 -2.52156 0.339318 0.729607 0.319937 0.500178 
33 1 -497.222 493.588 -1.59022 0.699021 0.666611 0.257523 0.0260906 
34 1 -248.183 -496.445 5.16655 0.258679 0.350488 0.211292 0.874985 
40 1 248.85 -247.748 -0.241046 0.678771 0.441598 0.545651 0.215702 
44 1 250.672 -1.85383 0.963713 0.520307 0.45815 0.0518989 0.718809 
42 1 -255.476 1.49933 2.07775 0.727075 0.0989962 0.0389675 0.678265 
41 1 499.148 1.58384 1.76931 0.484724 0.31279 0.393371 0.715866 
35 1 2.14206 499.176 3.08953 0.222645 0.368033 0.568045 0.701645 
3 1 -2.90844 -495.985 498.537 0.275491 0.6123 0.556103 0.489839 
4 1 251.636 -498.427 498.823 0.239017 0.813734 0.228419 0.47805 
5 1 -498.984 -246.522 499.113 0.409677 0.349947 0.384117 0.749771 
6 1 -249.199 -249.221 498.005 -0.00154566 0.452494 0.702108 0.54981 
7 1 -2.75207 -248.141 494.382 0.507156 0.812929 0.270385 0.0939742 
8 1 252.445 -252.369 497.54 0.757909 0.134304 0.370788 0.519666 
11 1 -1.49039 -3.62892 498.491 0.189772 0.771522 -0.00962985 0.607163 
12 1 250.258 1.70366 497.828 0.522724 0.357979 0.435387 0.63957 
9 1 499.162 0.480361 499.531 0.35576 0.782676 0.158136 0.485639 
15 1 5.19893 251.062 492.586 0.530117 0.777983 0.105461 0.320307 
16 1 246.031 251.55 -499.578 0.68617 0.163111 0.618187 0.347 
2 1 -249.836 498.105 499.233 0.544741 0.329472 0.677209 0.36891 
ITEM: TIMESTEP
20000
ITEM: NUMBER OF ATOMS
45
ITEM: BOX BOUNDS pp pp pp
-5.0000000000000000e+02 5.0000000000000000e+02
-5.0000000000000000e+02 5.0000000000000000e+02
-5.0000000000000000e+02 5.0000000000000000e+02
ITEM: ATOMS id type x y z c_q[1] c_q[2] c_q[3] c_q[4] 
1 1 497.528 -499.404 -499.644 0.502236 0.207592 0.3614 0.757663 
6 1 -249.87 -251.993 499.827 0.0379386 0.504874 0.688437 0.519343 
10 1 -252.585 5.67714 -498.248 0.660625 0.56571 0.45184 0.198464 
14 1 -246.559 250.206 -496.781 0.703138 0.22875 0.0802811 0.66845 
18 1 -251.02 -498.239 -246.69 0.333335 0.350957 0.484398 0.728749 
21 1 -491.313 -255.75 -251.872 0.864367 0.223232 0.0329134 0.449394 
22 1 -251.77 -242.561 -253.228 0.437158 0.481172 0.068369 0.756764 
23 1 5.15307 -251.616 -252.635 0.130742 0.582448 0.769082 0.228416 
24 1 251.19 -249.644 -258.558 0.792087 0.555632 0.202635 0.151028 
26 1 -259.999 -1.0302 -242.334 0.695405 0.612788 0.322712 0.191727 
25 1 -494.496 0.995266 -252.602 0.276358 0.0982581 0.213099 0.931966 
27 1 1.82436 6.31135 -245.426 0.816553 0.526002 0.232345 0.0507787 
28 1 244.87 5.13759 -253.72 0.296809 0.599887 0.409628 0.619875 
30 1 -247.451 244.979 -245.3 0.649582 0.325875 0.413956 0.548169 
31 1 6.33391 253.626 -254.378 0.485767 0.233224 0.660874 0.522382 
32 1 249.78 247.724 -250.934 0.846323 0.422 0.255715 0.200657 
29 1 496.631 258.662 -248.749 0.786538 0.463494 0.350118 0.209636 
17 1 -497.433 493.086 -250.284 0.492809 0.554842 0.243206 0.624612 
19 1 -3.90521 496.471 -249.347 0.0360992 0.522577 0.823589 0.217513 
20 1 244.851 485.187 -250.976 0.368058 0.612692 0.154046 0.682211 
36 1 251.196 -497.61 -9.21645 0.653154 0.539962 0.378662 0.372083 
38 1 -248.207 -246.25 -4.53589 0.0289387 0.41737 0.680969 0.601038 
40 1 246.048 -248.576 0.381375 0.712709 0.446775 0.500751 0.204174 
37 1 499.873 -248.543 -7.30062 0.390426 0.824284 0.208834 0.352863 
42 1 -255.903 -3.32977 -2.38183 0.714033 0.130508 0.0608557 0.685143 
44 1 254.961 -3.76034 -3.67127 0.536426 0.477457 0.0593305 0.69337 
43 1 -4.55667 4.19973 -5.67324 0.678459 0.400992 0.456128 0.413335 
45 1 489.297 249.61 -2.8735 0.354494 0.747254 0.285024 0.484465 
33 1 -496.147 497.417 -0.436988 0.6913 0.675507 0.255375 0.024026 
34 1 -250.482 -499.662 6.71455 0.222358 0.380914 0.22989 0.867532 
35 1 2.34939 -498.44 0.557125 0.201466 0.395473 0.603486 0.662433 
39 1 7.59585 -251.857 5.07205 0.37299 0.315691 0.710441 0.506449 
41 1 -496.483 2.66975 -0.391589 0.524699 0.314862 0.41753 0.671731 
3 1 3.65737 -497.518 492.726 0.26435 0.581998 0.577531 0.507795 
4 1 251.305 -493.462 497.598 0.225075 0.809648 0.195639 0.505507 
5 1 -498.211 -243.832 499.546 0.430214 0.351732 0.318104 0.768121 
7 1 -1.13283 -245.116 497.18 0.490623 0.818796 0.267783 0.130972 
8 1 255.078 -250.379 497.657 0.759674 0.12762 0.389222 0.505089 
9 1 -497.012 -1.03016 495.638 0.382743 0.764862 0.167185 0.490452 
11 1 -1.7017 -5.3191 -499.688 0.170397 0.779583 0.0152462 0.602481 
12 1 253.781 -1.11947 492.496 0.544207 0.358319 0.417315 0.633479 
15 1 12.1004 246.398 493.32 0.539154 0.788936 0.0694352 0.286481 
16 1 243.747 254.289 498.924 0.709807 0.183852 0.609285 0.3019 
13 1 496.921 249.47 495.65 0.508488 0.428481 0.561064 0.493003 
2 1 -255.036 492.493 494.577 0.544368 0.301143 0.652078 0.433325 
ITEM: TIMESTEP
30000
ITEM: NUMBER OF ATOMS
45
ITEM: BOX BOUNDS pp pp pp
-5.0000000000000000e+02 5.0000000000000000e+02
-5.0000000000000000e+02 5.0000000000000000e+02
-5.0000000000000000e+02 5.0000000000000000e+02
ITEM: ATOMS id type x y z c_q[1] c_q[2] c_q[3] c_q[4] 
5 1 499.457 -239.474 -495.686 0.432443 0.344257 0.365282 0.749032 
11 1 -1.58967 -3.21357 -495.968 0.198062 0.796752 0.0185637 0.570625 
10 1 -248.75 3.31522 -496.129 0.680776 0.536023 0.467035 0.176356 
14 1 -240.902 250.117 497.923 0.727673 0.228504 0.0285488 0.646113 
18 1 -256.379 -498.912 -250.556 0.377828 0.324008 0.450421 0.741206 
21 1 -489.705 -260.141 -249.469 0.851546 0.255803 0.0852203 0.449635 
22 1 -254.544 -242.554 -252.623 0.441693 0.425108 0.0288219 0.789532 
23 1 1.86578 -252.892 -257.093 0.131623 0.613226 0.736462 0.253482 
24 1 251.894 -250.235 -258.286 0.789504 0.580144 0.155554 0.126173 
26 1 -260.774 -2.05619 -247.255 0.724549 0.604214 0.296225 0.149014 
25 1 -487.959 5.63789 -249.002 0.255101 0.0695645 0.17025 0.949262 
27 1 -1.51682 7.07814 -246.551 0.793954 0.555119 0.242889 0.0498462 
28 1 243.041 4.36975 -261.304 0.304202 0.598408 0.415258 0.613946 
30 1 -250.22 244.993 -249.53 0.635244 0.320773 0.400693 0.577074 
31 1 14.202 252.923 -252.711 0.451331 0.225059 0.690454 0.518577 
32 1 246.575 252.51 -251.781 0.833605 0.378736 0.330693 0.2287 
29 1 496.432 256.764 -251.04 0.782485 0.476252 0.339227 0.214069 
19 1 -4.81968 495.214 -247.816 0.0681862 0.584942 0.772177 0.238613 
20 1 251.248 487.904 -247.308 0.298427 0.642784 0.196945 0.677483 
17 1 -499.636 499.721 -250.878 0.441469 0.560329 0.226523 0.663192 
33 1 -497.501 -495.307 -3.94434 0.684472 0.673354 0.276459 0.0407789 
35 1 0.424849 -499.224 -3.07761 0.179117 0.393433 0.596737 0.676042 
36 1 244.895 -494.25 -8.50161 0.647406 0.53436 0.407539 0.359494 
38 1 -249.04 -244.372 -7.57619 0.0139285 0.43871 0.659135 0.61064 
37 1 -499.521 -251.229 -7.57908 0.34978 0.841446 0.259907 0.319484 
42 1 -254.31 -2.28809 -4.21751 0.711069 0.125003 0.0888176 0.686197 
44 1 257.125 -0.616462 -2.33737 0.558383 0.424986 0.00471217 0.712442 
43 1 -4.40023 5.63482 -1.83832 0.670198 0.461081 0.442838 0.377006 
45 1 495.949 251.398 -1.90182 0.367226 0.754067 0.301865 0.453217 
39 1 10.6365 -249.051 10.7695 0.406753 0.29712 0.697096 0.510224 
40 1 245.559 -249.094 2.63496 0.686908 0.427613 0.548067 0.211962 
41 1 -496.15 4.18056 1.50637 0.544974 0.30404 0.430534 0.652076 
34 1 -253.376 -499.994 5.60432 0.225127 0.383745 0.26347 0.855945 
3 1 4.07111 -495.847 498.328 0.232996 0.588292 0.580627 0.512345 
4 1 252.884 -495.27 494.449 0.241205 0.83269 0.179445 0.465023 
1 1 498.437 -499.783 498.459 0.491625 0.205707 0.391083 0.750362 
6 1 -251.098 -253.105 499.085 0.0146649 0.519838 0.677168 0.520574 
7 1 2.00165 -245.304 495.717 0.485608 0.835009 0.223359 0.130601 
8 1 258.968 -250.314 491.656 0.768118 0.116058 0.414104 0.474387 
9 1 -493.417 -3.20696 492.933 0.363136 0.734826 0.184505 0.54233 
12 1 251.084 -0.121577 492.747 0.546872 0.315774 0.415304 0.654783 
15 1 12.4388 253.496 494.227 0.541347 0.798355 0.0317624 0.261847 
16 1 240.353 251.206 492.228 0.683376 0.231004 0.618615 0.311368 
13 1 492.29 248.968 492.485 0.533929 0.414538 0.56173 0.477008 
2 1 -259.056 492.054 493.972 0.544858 0.322547 0.638935 0.43687 
ITEM: TIMESTEP
40000
ITEM: NUMBER OF ATOMS
45
ITEM: BOX BOUNDS pp pp pp
-5.0000000000000000e+02 5.0000000000000000e+02
-5.0000000000000000e+02 5.0000000000000000e+02
-5.0000000000000000e+02 5.0000000000000000e+02
ITEM: ATOMS id type x y z c_q[1] c_q[2] c_q[3] c_q[4] 
5 1 -496.226 -234.495 -492.695 0.417138 0.326325 0.371021 0.762792 
11 1 -6.1546 -2.1761 -495.38 0.230971 0.798432 -0.0150279 0.555818 
10 1 -246.419 1.02829 -489.557 0.687614 0.583122 0.413553 0.127008 
18 1 -254.314 498.963 -246.649 0.400885 0.337909 0.44988 0.722991 
21 1 -482.304 -255.038 -249.267 0.857098 0.280827 0.14841 0.405578 
22 1 -251.244 -243.666 -247.875 0.460002 0.453713 0.0637934 0.760574 
23 1 1.45366 -250.807 -257.26 0.125839 0.590518 0.760955 0.237488 
24 1 248.191 -249.809 -256.557 0.802028 0.569094 0.117093 0.138462 
26 1 -264.255 -1.39793 -248.069 0.737728 0.606225 0.259487 0.144618 
25 1 -487.737 4.06194 -250.571 0.251265 0.0596819 0.144611 0.955192 
27 1 -1.02004 7.27823 -250.563 0.775391 0.568232 0.27196 0.0438066 
28 1 243.68 3.42313 -261.884 0.28699 0.59949 0.437902 0.605385 
30 1 -252.136 247.8 -248.055 0.611171 0.373692 0.418029 0.558638 
31 1 17.5071 251.265 -254.328 0.448009 0.224483 0.677136 0.538871 
32 1 248.376 252.368 -254.433 0.837103 0.403754 0.307308 0.20446 
29 1 492.764 259.277 -250.819 0.791616 0.451396 0.35005 0.216912 
17 1 -499.096 496.233 -248.855 0.424679 0.544309 0.196754 0.696178 
19 1 -5.64939 495.674 -248.366 0.0800281 0.540725 0.797263 0.256093 
20 1 248.048 483.389 -247.709 0.285991 0.667684 0.22305 0.65012 
33 1 -499.562 -491.68 -8.86432 0.682042 0.675628 0.269083 0.0770725 
35 1 -1.00295 499.191 -8.57203 0.207727 0.400826 0.616755 0.644827 
36 1 246.333 -496.913 -6.69598 0.605155 0.590552 0.392514 0.361895 
37 1 -498.904 -252.306 -4.85054 0.370119 0.822522 0.253813 0.349355 
38 1 -248.335 -239.18 -5.02964 0.0547078 0.402744 0.665837 0.625672 
42 1 -252.672 0.976293 -3.24486 0.659417 0.147181 0.0996317 0.730466 
43 1 -1.38224 1.67695 -3.9242 0.657478 0.428866 0.487639 0.382107 
44 1 259.909 1.77449 -8.17096 0.508459 0.426071 0.00161857 0.748285 
45 1 497.622 250.236 -0.680173 0.336398 0.771618 0.290685 0.454911 
39 1 9.3073 -247.628 8.412 0.44954 0.333518 0.637762 0.529093 
40 1 247.42 -248.241 0.766448 0.660476 0.435233 0.573962 0.211921 
41 1 -495.983 8.12634 6.02243 0.497799 0.32911 0.463804 0.654804 
34 1 -252.053 497.573 6.03494 0.222071 0.402924 0.281051 0.842228 
4 1 252.435 -489.629 498.255 0.245956 0.849095 0.138741 0.446424 
1 1 492.544 -497.631 500.065 0.50895 0.188956 0.379875 0.748973 
6 1 -255.25 -258.376 493.971 0.00210871 0.535887 0.641469 0.548944 
7 1 -2.33367 -246.429 499.275 0.482278 0.822235 0.251672 0.167325 
8 1 259.567 -246.908 492.125 0.749646 0.0974969 0.406229 0.513326 
9 1 -495.088 -5.80378 492.758 0.384164 0.733165 0.244164 0.505244 
12 1 250.728 -0.406099 496.591 0.523078 0.287475 0.410121 0.6896 
14 1 -241.945 251.604 493.163 0.719931 0.221558 0.074014 0.653554 
15 1 14.006 254.907 491.118 0.529674 0.796963 0.0266715 0.289108 
16 1 238.525 248.561 492.136 0.642243 0.2377 0.666275 0.295125 
13 1 491.206 250.505 495.528 0.503494 0.418081 0.588798 0.474362 
2 1 -256.645 489.59 497.572 0.53223 0.347094 0.618069 0.462868 
3 1 2.12712 496.419 497.98 0.160454 0.588357 0.6061 0.510621 
ITEM: TIMESTEP
50000
ITEM: NUMBER OF ATOMS
45
ITEM: BOX BOUNDS pp pp pp
-5.0000000000000000e+02 5.0000000000000000e+02
-5.0000000000000000e+02 5.0000000000000000e+02
-5.0000000000000000e+02 5.0000000000000000e+02
ITEM: ATOMS id type x y z c_q[1] c_q[2] c_q[3] c_q[4] 
1 1 488.759 -498.682 -496.984 0.50061 0.176483 0.418083 0.73719 
5 1 -493.896 -225.371 -494.716 0.399851 0.330504 0.362117 0.77444 
10 1 -250.871 5.45185 -490.442 0.716086 0.566468 0.386836 0.129198 
11 1 -8.74867 2.70794 -491.826 0.183519 0.800947 0.0255557 0.569343 
21 1 -486.268 -257.484 -247.324 0.860573 0.234195 0.0931643 0.442592 
22 1 -251.368 -240.773 -245.976 0.446089 0.479852 0.054823 0.753486 
23 1 7.72936 -251.434 -255.832 0.100609 0.548927 0.776808 0.291763 
24 1 251.653 -250.969 -256.22 0.825183 0.546277 0.0591502 0.130983 
25 1 -484.431 5.16191 -249.145 0.27092 0.0443088 0.150902 0.949667 
26 1 -262.277 1.94543 -242.159 0.714934 0.64939 0.19106 0.175094 
27 1 3.83544 8.30282 -247.272 0.782662 0.566332 0.258053 0.010844 
28 1 234.9 -0.119448 -262.44 0.313367 0.615411 0.403009 0.600544 
30 1 -253.595 247.744 -247.892 0.61605 0.362486 0.417782 0.560843 
31 1 19.7336 247.756 -256.368 0.450326 0.19586 0.68488 0.538316 
32 1 243.556 251.132 -253.464 0.843792 0.395376 0.296224 0.209627 
29 1 483.615 260.898 -249.251 0.773414 0.473399 0.351714 0.232426 
17 1 -499.136 498.4 -245.348 0.458099 0.524405 0.171314 0.696991 
18 1 -256.807 499.734 -248.459 0.38466 0.380279 0.432531 0.721347 
19 1 -5.89679 494.931 -246.84 0.0523398 0.562934 0.78928 0.23959 
20 1 256.613 483.015 -248.57 0.268405 0.697407 0.230854 0.623128 
36 1 248.254 -498.343 -6.5242 0.615152 0.568398 0.42824 0.339296 
33 1 -498.436 -491.997 -12.9379 0.676584 0.683492 0.252794 0.10568 
38 1 -246.789 -242.074 -8.6814 0.0219411 0.413801 0.649908 0.637108 
40 1 247.862 -251.735 -2.66703 0.697745 0.439288 0.518405 0.226792 
43 1 -0.534888 1.43261 -5.74859 0.666633 0.432357 0.476617 0.376171 
44 1 258.898 2.94022 -4.73371 0.518817 0.446364 -0.0132164 0.728981 
35 1 1.13207 494.119 -10.0124 0.147068 0.415827 0.642293 0.626832 
37 1 -498.246 -252.817 2.24189 0.376903 0.817956 0.282425 0.330346 
39 1 4.89533 -249.453 14.8426 0.427241 0.344488 0.67045 0.499289 
42 1 -251.136 -4.71557 1.62266 0.661889 0.134177 0.0675558 0.734394 
41 1 -499.323 9.24805 6.69023 0.549689 0.280827 0.4544 0.642261 
45 1 497.917 257.588 1.15844 0.346863 0.748544 0.317936 0.46721 
34 1 -253.378 -497.235 1.08644 0.236786 0.45433 0.28789 0.809096 
4 1 261.782 -492.491 494.286 0.323023 0.811493 0.153127 0.462263 
6 1 -250.411 -256.144 491.992 0.0203973 0.512866 0.659605 0.549066 
7 1 -3.48197 -234.083 -499.053 0.457767 0.844614 0.216158 0.174217 
8 1 261.668 -249.089 489.733 0.729209 0.0683028 0.416628 0.538526 
9 1 -498.079 -7.93211 491.403 0.43512 0.722582 0.199515 0.498738 
12 1 248.58 -4.65707 491.193 0.511296 0.26466 0.417463 0.703034 
14 1 -242.974 252.853 498.8 0.741155 0.196069 0.0839726 0.636549 
15 1 13.7415 252.217 487.541 0.511593 0.821138 0.0353817 0.250506 
16 1 242.832 248.639 489.774 0.645857 0.251756 0.663733 0.280972 
13 1 494.857 252.894 496.1 0.513266 0.438863 0.548437 0.493127 
2 1 -256.267 489.068 496.526 0.486429 0.342178 0.654714 0.46653 
3 1 0.061625 495.501 498.202 0.129768 0.599105 0.637042 0.467345 
ITEM: TIMESTEP
60000
ITEM: NUMBER OF ATOMS
45
ITEM: BOX BOUNDS pp pp pp
-5.0000000000000000e+02 5.0000000000000000e+02
-5.0000000000000000e+02 5.0000000000000000e+02
-5.0000000000000000e+02 5.0000000000000000e+02
ITEM: ATOMS id type x y z c_q[1] c_q[2] c_q[3] c_q[4] 
1 1 490.891 -498.304 -492.801 0.513789 0.219481 0.466956 0.68542 
5 1 -494.377 -226.552 -495.876 0.46246 0.347481 0.373184 0.725342 
7 1 3.04311 -232.778 -493.892 0.487322 0.821616 0.240359 0.172316 
10 1 -253.973 8.43474 -481.643 0.723671 0.553602 0.391984 0.127176 
11 1 -12.6174 3.10033 -488.369 0.167081 0.795719 0.0200165 0.58182 
14 1 -240.859 255.482 -499.227 0.747376 0.150116 0.0455676 0.645614 
21 1 -486.98 -256.818 -250.433 0.86099 0.237307 0.134387 0.429328 
22 1 -251.746 -239.946 -247.676 0.440556 0.514446 -0.0126948 0.735591 
23 1 8.40323 -255.108 -256.094 0.111453 0.553923 0.766099 0.306333 
24 1 253.262 -253.366 -251.254 0.829786 0.520814 0.0682168 0.188559 
28 1 237.554 -2.42266 -261.433 0.350169 0.59132 0.406455 0.602094 
25 1 -482.955 0.761409 -252.281 0.265884 0.00987588 0.154128 0.951553 
26 1 -262.098 -1.71431 -241.693 0.717068 0.648045 0.181939 0.18097 
27 1 2.28918 9.72196 -248.198 0.776798 0.541618 0.321185 0.00869438 
30 1 -254.462 252.088 -245.499 0.644866 0.365907 0.367439 0.56147 
31 1 24.828 254.024 -252.67 0.459561 0.250419 0.688568 0.501964 
32 1 241.022 255.429 -253.457 0.820037 0.428034 0.319414 0.205671 
29 1 489.291 259.72 -246.639 0.794898 0.452473 0.304591 0.265762 
17 1 -499.296 -498.025 -244.347 0.488033 0.52923 0.176676 0.671212 
18 1 -261.613 499.085 -253.843 0.397015 0.353182 0.422039 0.734523 
19 1 -0.917256 489.271 -252.212 0.0786971 0.536855 0.800496 0.254557 
20 1 257.533 483.052 -245.267 0.276325 0.686799 0.227253 0.632698 
33 1 -492.204 -487.412 -12.2956 0.672751 0.695477 0.239776 0.0788931 
34 1 -251.452 -490.747 -0.843838 0.188526 0.496363 0.283135 0.798696 
36 1 247.884 -495.98 -10.4865 0.624477 0.56035 0.44179 0.317581 
38 1 -248.846 -244.018 -12.9443 0.0556352 0.390765 0.637691 0.661482 
40 1 247.101 -258.685 -5.57944 0.711546 0.401252 0.527007 0.234443 
42 1 -252.02 -7.56588 -3.63434 0.672966 0.135996 0.065419 0.724115 
43 1 -0.836512 -3.9961 -5.4185 0.666516 0.455472 0.461667 0.367648 
44 1 260.386 -2.44489 -6.02578 0.468717 0.38243 0.00322299 0.796267 
35 1 2.88193 493.322 -13.6327 0.133517 0.419045 0.635714 0.634384 
37 1 -493.168 -251.929 4.03324 0.346925 0.831438 0.29364 0.319578 
39 1 4.44079 -250.242 18.361 0.425885 0.330109 0.692158 0.480175 
41 1 -498.471 12.0573 5.66836 0.525328 0.335938 0.440863 0.645612 
45 1 -499.252 252.495 9.18524 0.378937 0.738422 0.286459 0.478624 
4 1 258.526 -489.418 492.417 0.326242 0.808616 0.187746 0.45217 
6 1 -254.122 -253.168 491.451 -0.014372 0.543842 0.619577 0.565821 
8 1 264.492 -247.291 490.803 0.761477 0.0264448 0.370152 0.531452 
9 1 -499.268 -13.9774 487.402 0.475638 0.685198 0.152114 0.530221 
12 1 250.07 -5.67025 492.464 0.555331 0.299899 0.442029 0.637399 
15 1 14.8643 251.794 487.756 0.495054 0.834637 -0.00810617 0.241325 
16 1 242.669 245.32 487.92 0.623827 0.280167 0.67443 0.278372 
13 1 496.533 249.169 495.19 0.514384 0.448105 0.554405 0.476704 
2 1 -253.311 486.637 496.693 0.510134 0.325716 0.658649 0.44705 
3 1 -3.21702 497.779 496.109 0.0840526 0.600884 0.662952 0.438598 
ITEM: TIMESTEP
70000
ITEM: NUMBER OF ATOMS
45
ITEM: BOX BOUNDS pp pp pp
-5.0000000000000000e+02 5.0000000000000000e+02
-5.0000000000000000e+02 5.0000000000000000e+02
-5.0000000000000000e+02 5.0000000000000000e+02
ITEM: ATOMS id type x y z c_q[1] c_q[2] c_q[3] c_q[4] 
1 1 492.133 -498.814 -486.6 0.535923 0.220389 0.468283 0.667028 
5 1 -497.412 -223.773 -493.756 0.484921 0.355367 0.339396 0.723448 
7 1 8.05842 -231.436 -496.322 0.542489 0.784871 0.242034 0.176358 
10 1 -258.886 3.08339 -482.916 0.692568 0.550916 0.450253 0.118801 
11 1 -9.79238 1.22969 -493.534 0.177576 0.805257 -0.039109 0.564357 
14 1 -244.295 250.748 -498.83 0.736698 0.178624 0.0563111 0.649769 
17 1 497.112 -498.252 -244.299 0.47755 0.518031 0.214982 0.676294 
21 1 -489.119 -255.729 -249.508 0.860306 0.209415 0.135801 0.444496 
22 1 -254.735 -242.438 -245.074 0.43406 0.504206 -0.0110016 0.74649 
23 1 6.96641 -251.739 -257.24 0.0657952 0.541226 0.78192 0.302235 
24 1 248.004 -251.878 -255.592 0.810334 0.556372 0.0562313 0.175064 
25 1 -481.121 -2.30843 -249.098 0.256963 0.0464206 0.154239 0.952904 
26 1 -264.083 -1.50462 -241.86 0.725319 0.646733 0.187157 0.143599 
28 1 237.479 -1.63877 -258.499 0.355595 0.619094 0.391887 0.580257 
27 1 0.510258 8.22637 -249.118 0.799315 0.51441 0.310224 0.0154704 
30 1 -255.304 251.295 -239.166 0.647517 0.379853 0.376915 0.542558 
31 1 22.527 250.623 -254.255 0.473657 0.301807 0.670196 0.48518 
32 1 246.455 252.243 -250.239 0.799843 0.423517 0.335924 0.260843 
29 1 485.571 261.377 -243.87 0.792417 0.489048 0.270012 0.244948 
18 1 -260.215 495.552 -252.672 0.390671 0.364033 0.454207 0.713128 
19 1 -1.07267 490.624 -247.81 0.00141079 0.539842 0.80541 0.24471 
20 1 262.721 490.135 -245.564 0.250418 0.720795 0.212236 0.610492 
33 1 -493.282 -488.424 -14.347 0.688685 0.660002 0.276353 0.117217 
34 1 -254.797 -496.598 -4.46503 0.171467 0.457672 0.331995 0.806793 
36 1 251.805 -499.494 -9.33971 0.63981 0.567343 0.436551 0.279623 
38 1 -249.864 -244.792 -14.4012 0.0984287 0.425957 0.647749 0.623934 
40 1 249.413 -257.169 -3.74723 0.728172 0.427455 0.487078 0.223166 
42 1 -253.847 -11.6574 -9.99271 0.66754 0.195677 0.130537 0.706443 
43 1 3.10354 -3.22821 -5.78144 0.659827 0.485634 0.440658 0.36689 
44 1 262.551 -0.244391 -9.09441 0.4544 0.331319 -0.00783706 0.826854 
35 1 3.41728 490.155 -15.0103 0.10007 0.435621 0.627144 0.637895 
37 1 -494.823 -256.181 5.63781 0.303571 0.852982 0.260657 0.335148 
39 1 4.40505 -250.149 20.3804 0.42042 0.337153 0.699272 0.469675 
41 1 -497.028 18.4117 8.59744 0.541985 0.308068 0.374678 0.686267 
45 1 -494 248.61 7.8158 0.349923 0.7535 0.300066 0.468778 
3 1 1.69992 -499.357 498.509 0.0633809 0.613691 0.638375 0.460265 
4 1 257.189 -496.115 486.987 0.361983 0.831454 0.148682 0.394393 
6 1 -254.454 -255.419 488.057 -0.0467584 0.583962 0.619034 0.523066 
8 1 265.544 -247.525 485.586 0.745901 0.00535989 0.396726 0.534988 
12 1 254.115 -7.31887 488.606 0.522786 0.26833 0.448323 0.673572 
9 1 495.773 -10.9546 482.138 0.493772 0.672836 0.123995 0.536755 
15 1 16.1435 252.919 487.235 0.515936 0.826188 0.00336763 0.226301 
16 1 245.672 241.333 485.189 0.642827 0.258264 0.644006 0.324547 
13 1 495.808 250.613 490.189 0.515288 0.477033 0.532397 0.472728 
2 1 -254.795 484.735 494.027 0.541756 0.340597 0.631869 0.437305 
ITEM: TIMESTEP
80000
ITEM: NUMBER OF ATOMS
45
ITEM: BOX BOUNDS pp pp pp
-5.0000000000000000e+02 5.0000000000000000e+02
-5.0000000000000000e+02 5.0000000000000000e+02
-5.0000000000000000e+02 5.0000000000000000e+02
ITEM: ATOMS id type x y z c_q[1] c_q[2] c_q[3] c_q[4] 
3 1 0.0590528 -499.781 -495.071 0.0656766 0.621636 0.637868 0.449865 
1 1 494.262 -500.231 -484.141 0.535489 0.273744 0.454987 0.656736 
5 1 499.911 -231.444 -489.813 0.49588 0.398859 0.329056 0.697665 
7 1 11.248 -233.564 -494.269 0.55872 0.766467 0.232201 0.215505 
11 1 -13.522 -1.09871 -495.404 0.219734 0.820286 0.00112914 0.52806 
10 1 -261.81 5.70781 -479.544 0.706429 0.562483 0.404661 0.144289 
14 1 -244.784 247.789 499.153 0.739425 0.175888 0.0646266 0.646635 
17 1 495.39 -497.421 -242.383 0.500986 0.526757 0.222111 0.649774 
21 1 -488.206 -253.338 -248.045 0.872186 0.149453 0.120703 0.449873 
22 1 -257.758 -248.632 -245.974 0.392866 0.503103 -0.0317042 0.769116 
23 1 3.66412 -251.594 -258.162 0.0439231 0.523495 0.790591 0.314627 
24 1 242.808 -241.586 -258.911 0.817442 0.516521 0.101669 0.233791 
25 1 -483.653 -3.4768 -249.014 0.260541 0.0353645 0.175082 0.948796 
26 1 -264.82 -0.200223 -242.146 0.721529 0.645583 0.196311 0.155175 
27 1 -3.95421 13.9885 -244.988 0.799084 0.532186 0.27972 0.000274498 
28 1 240.997 1.4404 -263.007 0.368139 0.608933 0.380153 0.590895 
30 1 -259.286 252.228 -236.275 0.670001 0.374667 0.342981 0.541375 
31 1 25.2524 247.456 -252.801 0.473752 0.310165 0.656316 0.498605 
32 1 251.547 244.629 -248.173 0.804778 0.431577 0.324428 0.246617 
29 1 487.448 259.429 -243.675 0.803038 0.455596 0.281092 0.261822 
18 1 -259.788 494.87 -251.132 0.369307 0.331508 0.486826 0.718829 
19 1 -1.11541 491.418 -250.402 0.042138 0.517841 0.819696 0.241172 
20 1 263.25 490.935 -246.448 0.280684 0.692883 0.210131 0.630059 
33 1 -497.844 -491.575 -10.2173 0.69843 0.63381 0.320353 0.0886268 
34 1 -254.702 -499.845 -4.30154 0.172794 0.459755 0.330051 0.806123 
38 1 -250.415 -243.511 -8.94892 0.127533 0.425062 0.638187 0.629106 
40 1 250.128 -259.611 -10.4804 0.737244 0.426719 0.451034 0.266365 
42 1 -250.587 -11.2182 -14.0888 0.659868 0.223507 0.161302 0.698999 
44 1 257.881 0.924028 -11.546 0.445698 0.357422 -0.0459523 0.819445 
35 1 5.36493 491.986 -19.6503 0.101282 0.426244 0.64725 0.623799 
36 1 247.692 493.749 -9.74183 0.657792 0.54026 0.426481 0.305847 
37 1 -492.71 -255.257 12.0201 0.32975 0.858096 0.270547 0.285904 
39 1 7.39837 -251.007 23.2202 0.363791 0.359255 0.716366 0.474775 
43 1 8.20576 -14.2889 2.01825 0.691525 0.47248 0.426292 0.341806 
41 1 -496.204 13.4253 4.40898 0.508176 0.311559 0.424919 0.681272 
45 1 -494.855 248.631 5.99111 0.338783 0.759454 0.282722 0.478042 
6 1 -251.831 -257.734 484.404 -0.0654687 0.611739 0.621144 0.485458 
8 1 263.835 -250.488 485.707 0.764341 0.01843 0.40221 0.503657 
12 1 255.417 -11.8031 490.478 0.5293 0.26398 0.451028 0.668378 
9 1 496.19 -12.2694 486.281 0.469721 0.672237 0.113378 0.560897 
15 1 19.3982 250.867 488.739 0.478754 0.844989 0.0410719 0.234737 
16 1 246.304 244.874 483.708 0.649444 0.264407 0.650334 0.292193 
13 1 490.217 247.837 489.773 0.517033 0.467364 0.522695 0.490956 
2 1 -252.361 488.649 491.186 0.559567 0.369696 0.645998 0.364549 
4 1 250.51 498.494 492.831 0.346767 0.821335 0.182913 0.414372 
ITEM: TIMESTEP
90000
ITEM: NUMBER OF ATOMS
45
ITEM: BOX BOUNDS pp pp pp
-5.0000000000000000e+02 5.0000000000000000e+02
-5.0000000000000000e+02 5.0000000000000000e+02
-5.0000000000000000e+02 5.0000000000000000e+02
ITEM: ATOMS id type x y z c_q[1] c_q[2] c_q[3] c_q[4] 
3 1 -3.71755 -496.597 -483.582 0.110377 0.678404 0.595282 0.416202 
1 1 491.329 -498.966 -485.053 0.528575 0.29065 0.47502 0.640692 
5 1 -495.52 -229.851 -491.639 0.443488 0.41927 0.370651 0.700106 
7 1 13.9208 -228.553 -496.327 0.569117 0.768724 0.229699 0.180023 
10 1 -260.543 2.72263 -477.644 0.702724 0.591683 0.381468 0.102821 
11 1 -10.2328 -0.609129 -491.908 0.255653 0.812573 -0.0736962 0.51859 
21 1 -483.811 -254.616 -248.759 0.869245 0.148361 0.191126 0.43113 
22 1 -258.676 -254.858 -253.111 0.391612 0.501439 0.00723008 0.771458 
23 1 0.535453 -246.513 -256.284 0.00426617 0.533991 0.772584 0.343436 
24 1 247.106 -242.902 -259.255 0.829708 0.505202 0.126979 0.200578 