LAMMPS data file

20 atoms
20 ellipsoids
0 bonds
0 angles
0 dihedrals

1 atom types
0 bond types
0 angle types
0 dihedral types

-500.000000 500.000000 xlo xhi
-500.000000 500.000000 ylo yhi
-500.000000 500.000000 zlo zhi

Masses

1 203166.000000

Atoms

1 1 -500.000000 -500.000000 -500.000000 1 1.000000 3 0.000000
2 1 -166.666667 -500.000000 -500.000000 1 1.000000 4 0.000000
3 1 166.666667 -500.000000 -500.000000 1 1.000000 5 0.000000
4 1 -500.000000 -166.666667 -500.000000 1 1.000000 6 0.000000
5 1 -166.666667 -166.666667 -500.000000 1 1.000000 7 0.000000
6 1 166.666667 -166.666667 -500.000000 1 1.000000 8 0.000000
7 1 -500.000000 166.666667 -500.000000 1 1.000000 9 0.000000
8 1 -166.666667 166.666667 -500.000000 1 1.000000 10 0.000000
9 1 166.666667 166.666667 -500.000000 1 1.000000 11 0.000000
10 1 -500.000000 -500.000000 -166.666667 1 1.000000 12 0.000000
11 1 -166.666667 -500.000000 -166.666667 1 1.000000 13 0.000000
12 1 166.666667 -500.000000 -166.666667 1 1.000000 14 0.000000
13 1 -500.000000 -166.666667 -166.666667 1 1.000000 15 0.000000
14 1 -166.666667 -166.666667 -166.666667 1 1.000000 16 0.000000
15 1 166.666667 -166.666667 -166.666667 1 1.000000 17 0.000000
16 1 -500.000000 166.666667 -166.666667 1 1.000000 18 0.000000
17 1 -166.666667 166.666667 -166.666667 1 1.000000 19 0.000000
18 1 166.666667 166.666667 -166.666667 1 1.000000 20 0.000000
19 1 -500.000000 -500.000000 166.666667 1 1.000000 21 0.000000
20 1 -166.666667 -500.000000 166.666667 1 1.000000 22 0.000000

Ellipsoids

1 55.000000 110.000000 110.000000 0.081768 0.764251 0.639469 0.017742
2 55.000000 110.000000 110.000000 0.130091 0.479230 0.513676 0.699681
3 55.000000 110.000000 110.000000 0.502395 0.515622 0.515399 0.464863
4 55.000000 110.000000 110.000000 0.713135 0.273776 0.118955 0.634298
5 55.000000 110.000000 110.000000 0.585580 0.517177 0.546049 0.302415
6 55.000000 110.000000 110.000000 0.376435 0.240781 0.397029 0.801679
7 55.000000 110.000000 110.000000 0.659292 0.571783 0.364874 0.324446
8 55.000000 110.000000 110.000000 0.303253 0.032691 0.947896 0.091990
9 55.000000 110.000000 110.000000 0.620969 0.552713 0.272077 0.484645
10 55.000000 110.000000 110.000000 0.567274 0.368085 0.212031 0.705518
11 55.000000 110.000000 110.000000 0.762509 0.377840 0.469570 0.235205
12 55.000000 110.000000 110.000000 0.651176 0.470415 0.555294 0.215239
13 55.000000 110.000000 110.000000 0.627106 0.596695 0.239754 0.439557
14 55.000000 110.000000 110.000000 0.045215 0.969881 0.175048 0.163234
15 55.000000 110.000000 110.000000 0.126009 0.191496 0.854787 0.465608
16 55.000000 110.000000 110.000000 0.245955 0.129053 0.898619 0.339612
17 55.000000 110.000000 110.000000 0.566396 0.752701 0.310025 0.128536
18 55.000000 110.000000 110.000000 0.190380 0.391867 0.716331 0.545037
19 55.000000 110.000000 110.000000 0.595278 0.532148 0.388994 0.459506
20 55.000000 110.000000 110.000000 0.506153 0.545888 0.096908 0.660624




