ITEM: TIMESTEP
0
ITEM: NUMBER OF ATOMS
20
ITEM: BOX BOUNDS pp pp pp
-5.0000000000000000e+02 5.0000000000000000e+02
-5.0000000000000000e+02 5.0000000000000000e+02
-5.0000000000000000e+02 5.0000000000000000e+02
ITEM: ATOMS id type x y z c_q[1] c_q[2] c_q[3] c_q[4] 
1 1 -500 -500 -500 0.081768 0.764251 0.639469 0.017742 
2 1 -166.667 -500 -500 0.130091 0.47923 0.513676 0.69968 
3 1 166.667 -500 -500 0.502395 0.515622 0.515399 0.464863 
4 1 -500 -166.667 -500 0.713135 0.273776 0.118955 0.634298 
5 1 -166.667 -166.667 -500 0.58558 0.517177 0.546049 0.302415 
6 1 166.667 -166.667 -500 0.376435 0.240781 0.397029 0.801679 
7 1 -500 166.667 -500 0.659292 0.571783 0.364874 0.324446 
8 1 -166.667 166.667 -500 0.303253 0.032691 0.947896 0.09199 
9 1 166.667 166.667 -500 0.620969 0.552713 0.272077 0.484645 
10 1 -500 -500 -166.667 0.567274 0.368085 0.212031 0.705518 
11 1 -166.667 -500 -166.667 0.762509 0.37784 0.46957 0.235205 
12 1 166.667 -500 -166.667 0.651176 0.470415 0.555294 0.215239 
13 1 -500 -166.667 -166.667 0.627106 0.596695 0.239754 0.439557 
14 1 -166.667 -166.667 -166.667 0.045215 0.969881 0.175048 0.163234 
15 1 166.667 -166.667 -166.667 0.126009 0.191496 0.854787 0.465608 
16 1 -500 166.667 -166.667 0.245955 0.129053 0.898619 0.339612 
17 1 -166.667 166.667 -166.667 0.566396 0.752701 0.310025 0.128536 
18 1 166.667 166.667 -166.667 0.19038 0.391867 0.716331 0.545037 
19 1 -500 -500 166.667 0.595278 0.532148 0.388994 0.459506 
20 1 -166.667 -500 166.667 0.506153 0.545888 0.096908 0.660624 
ITEM: TIMESTEP
10000
ITEM: NUMBER OF ATOMS
20
ITEM: BOX BOUNDS pp pp pp
-5.0000000000000000e+02 5.0000000000000000e+02
-5.0000000000000000e+02 5.0000000000000000e+02
-5.0000000000000000e+02 5.0000000000000000e+02
ITEM: ATOMS id type x y z c_q[1] c_q[2] c_q[3] c_q[4] 
1 1 497.913 -497.321 -493.618 0.11555 0.786796 0.602954 0.0636061 
2 1 -165.752 -496.843 -496.104 0.179858 0.525344 0.475925 0.682026 
5 1 -166.724 -167.747 -496.736 0.599259 0.492729 0.543804 0.319976 
4 1 -496.959 -168.107 -494.573 0.695659 0.311276 0.14283 0.631478 
8 1 -164.142 169.409 499.296 0.315829 0.0484276 0.942054 0.102182 
11 1 -166.097 499.429 -165.73 0.763987 0.404175 0.449942 0.224762 
10 1 497.929 -500.216 -168.366 0.556784 0.387473 0.244663 0.692818 
14 1 -167.792 -167.972 -168.541 0.0830365 0.973122 0.141673 0.161456 
16 1 -497.51 161.471 -168.567 0.306022 0.170719 0.863808 0.361996 
17 1 -168.247 173.31 -169.173 0.539007 0.769693 0.326169 0.103234 
12 1 167.534 498.804 -169.053 0.697526 0.484176 0.490624 0.195752 
13 1 -499.987 -167.974 -166.405 0.589487 0.628708 0.28616 0.41874 
15 1 165.009 -165.397 -164.801 0.0861396 0.186962 0.853823 0.478133 
18 1 172.688 166.492 -165.169 0.231292 0.383099 0.719246 0.531436 
20 1 -168.027 -499.818 166.255 0.494881 0.547154 0.104352 0.666953 
19 1 497.693 -499.672 164.573 0.611603 0.52151 0.370688 0.46536 
3 1 169.397 499.494 497.936 0.487922 0.508659 0.502862 0.500328 
6 1 163.432 -171.29 498.539 0.398048 0.232447 0.396365 0.79399 
7 1 -492.976 163.563 -499.642 0.663649 0.54673 0.359389 0.362623 
9 1 168.865 168.571 496.42 0.597114 0.521596 0.284326 0.539028 
ITEM: TIMESTEP
20000
ITEM: NUMBER OF ATOMS
20
ITEM: BOX BOUNDS pp pp pp
-5.0000000000000000e+02 5.0000000000000000e+02
-5.0000000000000000e+02 5.0000000000000000e+02
-5.0000000000000000e+02 5.0000000000000000e+02
ITEM: ATOMS id type x y z c_q[1] c_q[2] c_q[3] c_q[4] 
2 1 -166.797 -497.638 -496.007 0.14933 0.547981 0.495792 0.656969 
1 1 496.561 -497.792 -494.584 0.0908048 0.812786 0.573078 0.0521078 
4 1 -492.213 -169.027 -495.581 0.689912 0.256569 0.138746 0.662527 
5 1 -168.437 -167.803 -499.504 0.609803 0.436151 0.579848 0.318886 
7 1 -488.176 159.468 -497.787 0.659809 0.556155 0.324725 0.387166 
8 1 -160.598 174.515 -498.91 0.305245 0.0477129 0.943152 0.122529 
11 1 -166.474 -495.115 -165.788 0.759181 0.419206 0.451573 0.209744 
12 1 165.783 -496.539 -171.55 0.680272 0.509581 0.484642 0.20659 
14 1 -169.024 -168.718 -169.042 0.121822 0.970998 0.128731 0.160471 
13 1 499.5 -171.242 -170.339 0.578803 0.62802 0.270811 0.444117 
15 1 166.205 -163.205 -170.046 0.102899 0.201637 0.843543 0.487021 
18 1 170.162 165.814 -167.631 0.176654 0.375091 0.694862 0.587594 
17 1 -167.861 177.928 -173.054 0.503563 0.771199 0.373967 0.108743 
10 1 489.976 495.694 -170.341 0.562367 0.424869 0.288344 0.648142 
16 1 -498.367 169.112 -165.081 0.274229 0.176349 0.855714 0.401813 
19 1 497.283 498.835 164.283 0.647521 0.504589 0.309876 0.47967 
20 1 -167.55 497.3 168.195 0.468574 0.545817 0.109173 0.686006 
6 1 168.49 -172.91 498.475 0.431254 0.244574 0.390506 0.775699 
9 1 164.979 169.088 493.346 0.594867 0.555742 0.30428 0.494669 
3 1 175.291 498.434 497.091 0.492062 0.52057 0.502553 0.484069 
ITEM: TIMESTEP
30000
ITEM: NUMBER OF ATOMS
20
ITEM: BOX BOUNDS pp pp pp
-5.0000000000000000e+02 5.0000000000000000e+02
-5.0000000000000000e+02 5.0000000000000000e+02
-5.0000000000000000e+02 5.0000000000000000e+02
ITEM: ATOMS id type x y z c_q[1] c_q[2] c_q[3] c_q[4] 
2 1 -163.542 -493.71 -494.894 0.140088 0.506916 0.543248 0.654442 
1 1 491.834 -496.679 -492.004 0.085831 0.833472 0.543565 0.0499469 
4 1 -491.124 -166.869 -493.833 0.684814 0.248256 0.142881 0.670063 
5 1 -167.546 -162.97 -498.376 0.591471 0.446756 0.586673 0.326169 
7 1 -490.058 165.048 -497.953 0.680857 0.564055 0.308424 0.350928 
8 1 -165.375 180.338 -497.799 0.288852 0.0315686 0.949592 0.11766 
12 1 162.878 -493.072 -176.392 0.685088 0.499006 0.481237 0.223735 
14 1 -171.309 -170.649 -174.338 0.116239 0.972377 0.131005 0.154301 
13 1 495.154 -172.019 -172.076 0.59321 0.646393 0.245438 0.412358 
15 1 169.501 -165.837 -170.829 0.0926238 0.154958 0.845843 0.501955 
17 1 -166.132 176.384 -171.731 0.471831 0.76116 0.428222 0.120981 
10 1 487.423 498.91 -176.954 0.557442 0.374594 0.341188 0.657669 
11 1 -167.888 -492.899 -165.397 0.777371 0.43255 0.422375 0.173764 
18 1 168.151 167.083 -163.473 0.209899 0.375662 0.679516 0.594204 
16 1 497.083 167.93 -166.199 0.297917 0.109244 0.869419 0.378712 
19 1 493.314 494.3 166.893 0.665627 0.528476 0.310028 0.426071 
20 1 -166.947 493.892 168.149 0.465852 0.557829 0.118793 0.676533 
6 1 168.457 -174.605 495.006 0.389737 0.212404 0.400169 0.801782 
9 1 165.547 170.061 490.499 0.591857 0.544247 0.273179 0.528086 
3 1 173.76 494.984 491.542 0.45834 0.525955 0.511718 0.501438 
ITEM: TIMESTEP
40000
ITEM: NUMBER OF ATOMS
20
ITEM: BOX BOUNDS pp pp pp
-5.0000000000000000e+02 5.0000000000000000e+02
-5.0000000000000000e+02 5.0000000000000000e+02
-5.0000000000000000e+02 5.0000000000000000e+02
ITEM: ATOMS id type x y z c_q[1] c_q[2] c_q[3] c_q[4] 
2 1 -162.528 -497.203 -495.17 0.128257 0.523305 0.567017 0.623052 
1 1 493.994 -492.712 -493.893 0.0584868 0.818878 0.570727 0.0169756 
4 1 -495.04 -169.804 -492.262 0.693834 0.249834 0.172199 0.653089 
5 1 -170.951 -163.249 -499.826 0.591036 0.447381 0.592667 0.315076 
12 1 164.848 -498.62 -181.344 0.636687 0.519958 0.504269 0.264547 
10 1 483.101 -498.483 -175.28 0.572114 0.429893 0.316503 0.622659 
14 1 -167.457 -171.619 -174.635 0.0930286 0.966699 0.145091 0.189174 
13 1 497.655 -169.031 -173.033 0.623384 0.594031 0.239173 0.448682 
15 1 168.325 -160.385 -176.067 0.110434 0.149513 0.847873 0.49655 
16 1 495.86 165.81 -170.518 0.332911 0.0858365 0.853182 0.392279 
17 1 -168.76 178.156 -171.834 0.457096 0.792305 0.385029 0.122753 
11 1 -167.801 497.803 -168.828 0.786377 0.438069 0.391922 0.19001 
18 1 176.536 160.848 -160.052 0.185965 0.343106 0.702687 0.594917 
20 1 -167.173 491.245 161.877 0.441951 0.504892 0.142573 0.727624 
19 1 492.379 493.347 170.74 0.652217 0.522049 0.312343 0.452238 
6 1 164.986 -176.749 496.288 0.38694 0.235575 0.424238 0.784095 
7 1 -481.713 166.629 499.137 0.694158 0.544691 0.371291 0.289136 
8 1 -169.577 181.17 497.767 0.22414 0.0313898 0.965108 0.13169 
9 1 163.644 173.089 486.902 0.592031 0.544246 0.274723 0.527089 
3 1 169.607 498.178 487.489 0.427002 0.581567 0.503332 0.475506 
ITEM: TIMESTEP
50000
ITEM: NUMBER OF ATOMS
20
ITEM: BOX BOUNDS pp pp pp
-5.0000000000000000e+02 5.0000000000000000e+02
-5.0000000000000000e+02 5.0000000000000000e+02
-5.0000000000000000e+02 5.0000000000000000e+02
ITEM: ATOMS id type x y z c_q[1] c_q[2] c_q[3] c_q[4] 
2 1 -165.193 -498.013 -494.838 0.12692 0.514708 0.550161 0.645205 
1 1 488.304 -493.112 -494.808 0.0626121 0.806669 0.587423 0.0172815 
4 1 -495.479 -170.653 -490.551 0.737991 0.228998 0.139276 0.619299 
10 1 484.549 -495.292 -176.202 0.572324 0.394932 0.313703 0.646579 
14 1 -165.681 -174.366 -166.979 0.134518 0.958304 0.190024 0.16568 
13 1 -497.136 -166.771 -173.964 0.653325 0.564348 0.232152 0.448088 
15 1 166.801 -162.748 -181.043 0.133441 0.125627 0.84577 0.501084 
16 1 -497.567 167.894 -173.245 0.351696 0.100168 0.840342 0.400127 
17 1 -168.624 174.737 -176.554 0.451488 0.808512 0.342724 0.158137 
11 1 -166.554 495.514 -173.984 0.79749 0.461501 0.356677 0.154302 
12 1 164.393 495.891 -179.742 0.654626 0.526345 0.483177 0.24691 
18 1 178.184 156.628 -163.524 0.167669 0.321103 0.703703 0.611214 
20 1 -162.521 493.551 157.127 0.495536 0.528481 0.139536 0.675041 
19 1 496.81 489.982 176.966 0.627417 0.551881 0.33239 0.437371 
6 1 163.23 -183.216 492.893 0.373107 0.195293 0.399879 0.814094 
5 1 -169.527 -164.474 497.66 0.607283 0.454244 0.578856 0.299659 
7 1 -480.872 167.818 500.249 0.6784 0.543376 0.405284 0.283302 
8 1 -164.813 180.291 498.856 0.222235 0.0212158 0.961747 0.158758 
9 1 166.888 169.392 484.925 0.618761 0.492726 0.266955 0.550536 
3 1 170.77 497.208 492.433 0.419428 0.555243 0.49652 0.518896 
ITEM: TIMESTEP
60000
ITEM: NUMBER OF ATOMS
20
ITEM: BOX BOUNDS pp pp pp
-5.0000000000000000e+02 5.0000000000000000e+02
-5.0000000000000000e+02 5.0000000000000000e+02
-5.0000000000000000e+02 5.0000000000000000e+02
ITEM: ATOMS id type x y z c_q[1] c_q[2] c_q[3] c_q[4] 
1 1 489.408 -490.73 -495.031 0.0533161 0.817482 0.57263 0.0312267 
4 1 -495.247 -167.172 -486.727 0.715731 0.245556 0.178496 0.628944 
2 1 -167.315 496.983 -495.292 0.0690473 0.555902 0.523324 0.642136 
10 1 494.667 -489.591 -174.959 0.601269 0.399576 0.310178 0.61855 
13 1 -496.664 -169.896 -174.082 0.637995 0.588742 0.188665 0.459076 
15 1 169.166 -164.247 -182.913 0.130567 0.155252 0.835026 0.511449 
16 1 -494.446 169.994 -172.372 0.356472 0.133452 0.854446 0.353611 
17 1 -167.077 177.287 -178.587 0.459886 0.812566 0.32904 0.141328 
11 1 -170.709 499.849 -177.69 0.794377 0.481778 0.332252 0.162677 
12 1 166.173 495.515 -177.683 0.649898 0.54098 0.475029 0.243559 
14 1 -160.323 -174.16 -165.855 0.100941 0.970112 0.18979 0.112573 
18 1 182.245 161.541 -165.274 0.232322 0.297813 0.713697 0.589891 
20 1 -162.1 494.572 161.922 0.473602 0.594181 0.116528 0.639587 
19 1 496.021 495.578 176.387 0.635769 0.588666 0.344502 0.36137 
3 1 168.06 -499.928 497.225 0.459249 0.566262 0.468281 0.49915 
6 1 165.799 -179.481 494.757 0.401359 0.167423 0.360259 0.825284 
5 1 -170.974 -160.95 496.187 0.57153 0.45959 0.624394 0.268816 
7 1 -482.82 173.392 499.385 0.640672 0.552359 0.447676 0.289871 
8 1 -167.021 179.08 498.685 0.217884 -0.00862202 0.963604 0.154658 
9 1 163.526 168.241 481.928 0.610645 0.464522 0.254384 0.588745 
ITEM: TIMESTEP
70000
ITEM: NUMBER OF ATOMS
20
ITEM: BOX BOUNDS pp pp pp
-5.0000000000000000e+02 5.0000000000000000e+02
-5.0000000000000000e+02 5.0000000000000000e+02
-5.0000000000000000e+02 5.0000000000000000e+02
ITEM: ATOMS id type x y z c_q[1] c_q[2] c_q[3] c_q[4] 
2 1 -162.392 -497.355 -497.077 0.102652 0.550922 0.571436 0.599506 
1 1 488.419 -491.366 -487.932 0.0794199 0.811595 0.578463 0.0196766 
4 1 -495.55 -164.844 -491.421 0.724137 0.241944 0.147036 0.628863 
7 1 -482.306 175.332 -496.106 0.649299 0.533389 0.438193 0.319209 
8 1 -164.077 179.025 499.6 0.198695 -0.0313636 0.969467 0.140252 
3 1 174.01 496.216 -497.278 0.477759 0.56099 0.477897 0.478175 
10 1 493.923 -488.871 -172.926 0.617422 0.379164 0.287044 0.626603 
13 1 -497.648 -177.334 -176.758 0.626796 0.616293 0.156703 0.450282 
14 1 -157.168 -176.397 -170.012 0.0983741 0.974529 0.176927 0.0964989 
15 1 168.591 -166.472 -183.989 0.0806407 0.192466 0.827683 0.520956 
16 1 -497.774 168.627 -180.429 0.327911 0.0876918 0.860977 0.378818 
17 1 -166.572 176.72 -174.948 0.489459 0.820342 0.293397 0.0372453 
11 1 -172.616 498.505 -175.414 0.770054 0.49272 0.361457 0.183286 
12 1 171.81 491.15 -183.45 0.620738 0.567406 0.464524 0.277404 
18 1 185.397 160.007 -163.347 0.2348 0.278193 0.717733 0.593579 
20 1 -162.436 495.029 161.165 0.431192 0.575891 0.115214 0.684944 
19 1 495.254 496.971 172.181 0.635351 0.570797 0.352343 0.382589 
6 1 162.103 -181.628 493.929 0.40911 0.185271 0.364768 0.815628 
5 1 -169.24 -157.751 499.307 0.582622 0.412744 0.640347 0.283106 
9 1 166.076 169.275 484.789 0.588217 0.458954 0.304185 0.592312 
ITEM: TIMESTEP
80000
ITEM: NUMBER OF ATOMS
20
ITEM: BOX BOUNDS pp pp pp
-5.0000000000000000e+02 5.0000000000000000e+02
-5.0000000000000000e+02 5.0000000000000000e+02
-5.0000000000000000e+02 5.0000000000000000e+02
ITEM: ATOMS id type x y z c_q[1] c_q[2] c_q[3] c_q[4] 
2 1 -171.372 -499.739 -499.167 0.0815967 0.518093 0.620534 0.582975 
1 1 493.725 -493.079 -485.176 0.0503358 0.805608 0.589991 0.0193036 
4 1 -491.477 -160.789 -494.524 0.733427 0.227553 0.177038 0.615598 
7 1 -476.948 178.592 -496.732 0.634993 0.542035 0.436679 0.335101 
3 1 171.127 494.4 -494.021 0.419439 0.61427 0.482578 0.462452 
11 1 -169.149 -499.591 -172.017 0.76484 0.478903 0.367844 0.224414 
10 1 491.519 -482.842 -166.208 0.621462 0.385203 0.260442 0.630534 
13 1 -495.92 -176.204 -176.469 0.630921 0.610129 0.193425 0.438484 
14 1 -157.049 -178.639 -168.153 0.0901872 0.975057 0.195286 0.0547131 
15 1 170.683 -168.144 -185.677 0.0215396 0.260964 0.82192 0.505847 
16 1 498.709 174.374 -186.076 0.351864 0.101652 0.837319 0.405902 
17 1 -166.434 175.236 -173.938 0.463402 0.807665 0.364112 -0.0189346 
12 1 173.212 485.122 -186.819 0.600063 0.613567 0.464124 0.219202 
18 1 185.997 159.118 -161.16 0.200901 0.269494 0.739805 0.582838 
20 1 -158.976 499.102 162.657 0.363889 0.543024 0.0942852 0.75088 
19 1 495.439 496.187 172.583 0.643186 0.555797 0.324247 0.415049 
6 1 161.399 -177.587 493.076 0.445697 0.183885 0.335216 0.809426 
5 1 -170.634 -151.25 -499.937 0.574999 0.404103 0.645836 0.298285 
8 1 -170.755 182.007 496.392 0.19689 -0.0685136 0.968835 0.133789 
9 1 165.949 168.833 483.008 0.555654 0.496978 0.349719 0.567414 
ITEM: TIMESTEP
90000
ITEM: NUMBER OF ATOMS
20
ITEM: BOX BOUNDS pp pp pp
-5.0000000000000000e+02 5.0000000000000000e+02
-5.0000000000000000e+02 5.0000000000000000e+02
-5.0000000000000000e+02 5.0000000000000000e+02
ITEM: ATOMS id type x y z c_q[1] c_q[2] c_q[3] c_q[4] 
2 1 -171.177 -497.106 -495.484 0.0912325 0.474713 0.633404 0.604254 
1 1 489.664 -493.751 -483.509 0.0600438 0.802566 0.591014 0.0546383 
4 1 -484.614 -158.289 -491.331 0.724051 0.219989 0.146239 0.637157 
5 1 -170.594 -152.91 -498.544 0.593531 0.378971 0.631616 0.324289 
7 1 -476.716 178.61 -493.498 0.656002 0.522893 0.395449 0.373984 
3 1 169.974 490.586 -492.86 0.467465 0.614019 0.454903 0.444433 
10 1 490.161 -480.116 -166.565 0.642551 0.367673 0.258257 0.620683 
13 1 -494.226 -178.747 -177.156 0.604581 0.615617 0.221293 0.454452 
14 1 -162.116 -178.972 -166.694 0.110807 0.966365 0.222463 0.0661151 
15 1 172.215 -169.541 -193.4 0.0491244 0.201325 0.860904 0.46465 
16 1 498.261 166.245 -183.106 0.353332 0.0792966 0.84816 0.386642 
17 1 -164.908 171.263 -175.607 0.462046 0.791712 0.397893 -0.0372397 
12 1 178.429 494.707 -185.132 0.59783 0.600329 0.475212 0.237441 
11 1 -168.542 -494.779 -167.974 0.754853 0.502405 0.363868 0.21304 
18 1 182.829 162.432 -156.129 0.138215 0.266402 0.759317 0.577377 
20 1 -158.856 -499.813 163.848 0.385466 0.526877 0.0518252 0.755732 
19 1 495.399 498.717 172.218 0.640578 0.532952 0.358315 0.420989 
6 1 162.513 -186.14 494.291 0.462359 0.1717 0.309445 0.813011 
8 1 -170.947 184.054 493.019 0.160861 -0.0736208 0.975914 0.12765 
9 1 162.832 167.668 481.951 0.537105 0.441838 0.377366 0.611468 
ITEM: TIMESTEP
100000
ITEM: NUMBER OF ATOMS
20
ITEM: BOX BOUNDS pp pp pp
-5.0000000000000000e+02 5.0000000000000000e+02
-5.0000000000000000e+02 5.0000000000000000e+02
-5.0000000000000000e+02 5.0000000000000000e+02
ITEM: ATOMS id type x y z c_q[1] c_q[2] c_q[3] c_q[4] 
1 1 491.421 -490.353 -487.886 0.0346813 0.805133 0.591346 0.0294697 
4 1 -485.644 -159.789 -487.267 0.746956 0.187521 0.110715 0.628199 
5 1 -171.56 -150.578 -496.381 0.605267 0.390727 0.628076 0.294118 
7 1 -474.074 178.768 -494.35 0.649696 0.527387 0.401223 0.372529 
3 1 167.844 490.233 -486.93 0.482903 0.625641 0.45998 0.404719 
10 1 488.303 -480.949 -166.981 0.653869 0.314153 0.253837 0.639789 
13 1 -495.17 -177.77 -176.691 0.567016 0.626576 0.251415 0.471896 
14 1 -164.374 -183.744 -171.855 0.138799 0.964358 0.183326 0.13092 
15 1 177.414 -163.224 -194.885 0.0546677 0.18345 0.863534 0.466548 
17 1 -165.846 174.558 -169.28 0.471256 0.790242 0.388555 0.0496031 
16 1 492.507 168.238 -180.411 0.374125 0.109766 0.833392 0.391715 
11 1 -173.022 498.849 -169.474 0.748557 0.522033 0.359493 0.194703 
12 1 175.214 497.75 -180.45 0.639941 0.569375 0.438733 0.271662 
18 1 182.487 160.769 -157.316 0.116747 0.192095 0.762945 0.606122 
20 1 -164.654 -495.24 167.212 0.421143 0.51248 0.0357265 0.74748 
19 1 493.389 498.726 171.305 0.665234 0.514263 0.351196 0.411896 
2 1 -173.761 -496.21 498.527 0.0518874 0.430386 0.655097 0.618808 
6 1 160.601 -184.046 495.358 0.469632 0.169562 0.305869 0.810641 
8 1 -167.611 186.501 489.501 0.191806 -0.0543036 0.970372 0.136529 
9 1 166.68 168.716 481.538 0.551976 0.481062 0.332457 0.594454 
ITEM: TIMESTEP
110000
ITEM: NUMBER OF ATOMS
20
ITEM: BOX BOUNDS pp pp pp
-5.0000000000000000e+02 5.0000000000000000e+02
-5.0000000000000000e+02 5.0000000000000000e+02
-5.0000000000000000e+02 5.0000000000000000e+02
ITEM: ATOMS id type x y z c_q[1] c_q[2] c_q[3] c_q[4] 
2 1 -173.876 -494.608 -498.514 0.082074 0.452687 0.658966 0.595065 
1 1 493.443 -489.178 -490.921 0.0705497 0.805865 0.587529 0.0203476 
4 1 -487.503 -162.704 -487.213 0.718789 0.165526 0.124689 0.663624 
7 1 -468.59 184.225 -492.411 0.636417 0.54817 0.403859 0.362465 
3 1 172.485 489.6 -488.556 0.475588 0.613773 0.493322 0.392088 
10 1 484.851 -486.775 -168.328 0.656062 0.332791 0.229316 0.637375 
13 1 -495.733 -177.929 -178.156 0.57777 0.617245 0.229575 0.482168 
14 1 -164.082 -182.326 -170.903 0.1162 0.967599 0.199451 0.10232 
15 1 181.082 -163.42 -201.292 0.0233121 0.163817 0.856727 0.488508 
17 1 -168.035 174.654 -176.161 0.453375 0.798183 0.393282 0.0518038 
16 1 486.365 172.573 -179.513 0.364781 0.12846 0.845274 0.368707 
11 1 -171.723 489.129 -175.522 0.757868 0.511443 0.348481 0.206451 
12 1 173.675 497.732 -180.592 0.613079 0.591639 0.458826 0.252143 
18 1 182.93 162.566 -153.592 0.131227 0.172075 0.762206 0.610092 
20 1 -169.326 -492.766 167.5 0.468314 0.475139 0.0263091 0.744468 
19 1 498.334 498.076 165.333 0.652032 0.499927 0.354442 0.446429 
6 1 163.723 -187.377 497.238 0.48174 0.209313 0.27288 0.80601 
5 1 -175.409 -149.45 496.148 0.574861 0.404213 0.652588 0.283328 
9 1 166.654 162.903 480.864 0.578576 0.462356 0.324117 0.588579 
8 1 -169.891 182.845 487.813 0.186508 -0.0780294 0.970346 0.132493 
ITEM: TIMESTEP
120000
ITEM: NUMBER OF ATOMS
20
ITEM: BOX BOUNDS pp pp pp
-5.0000000000000000e+02 5.0000000000000000e+02
-5.0000000000000000e+02 5.0000000000000000e+02
-5.0000000000000000e+02 5.0000000000000000e+02
ITEM: ATOMS id type x y z c_q[1] c_q[2] c_q[3] c_q[4] 
2 1 -170.98 -497.697 -495.217 0.110974 0.429303 0.653482 0.61347 
1 1 494.064 -492.822 -489.76 0.0155159 0.810596 0.58433 -0.035383 
4 1 -481.848 -167.932 -491.313 0.733719 0.155525 0.132318 0.648044 
7 1 -466.174 180.32 -492.266 0.615884 0.570164 0.397878 0.370532 
3 1 174.336 493.211 -490.156 0.458951 0.55658 0.530373 0.445293 
10 1 483.646 -484.988 -168.18 0.609995 0.370186 0.252074 0.653703 
13 1 -495.39 -175.838 -177.204 0.593707 0.60387 0.223677 0.482517 
14 1 -168.549 -186.683 -174.77 0.138897 0.95754 0.20502 0.147621 
15 1 178.207 -167.147 -205.157 -0.0198328 0.155091 0.858524 0.488354 
17 1 -166.543 174.54 -177.645 0.461647 0.773997 0.423967 0.0897865 
16 1 490.432 171.09 -180.107 0.345895 0.146513 0.864594 0.333717 
11 1 -174.566 488.569 -177.618 0.770167 0.505016 0.328507 0.209488 
12 1 179.715 494.238 -180.189 0.620365 0.581623 0.447298 0.277103 
18 1 179.486 160.284 -150.95 0.12 0.175497 0.796433 0.566123 
19 1 494.693 -498.501 162.363 0.680357 0.481155 0.326408 0.446163 
20 1 -169.518 -489.704 167.189 0.435526 0.478228 0.0276754 0.762134 
6 1 157.126 -179.111 495.377 0.476711 0.185884 0.270747 0.815408 
5 1 -172.417 -148.715 499.092 0.602029 0.374232 0.640325 0.295797 
9 1 171.052 158.126 481.002 0.570545 0.42783 0.350924 0.606871 
8 1 -166.109 176.812 495.577 0.195494 -0.0391527 0.966434 0.162033 
ITEM: TIMESTEP
130000
ITEM: NUMBER OF ATOMS
20
ITEM: BOX BOUNDS pp pp pp
-5.0000000000000000e+02 5.0000000000000000e+02
-5.0000000000000000e+02 5.0000000000000000e+02
-5.0000000000000000e+02 5.0000000000000000e+02
ITEM: ATOMS id type x y z c_q[1] c_q[2] c_q[3] c_q[4] 
1 1 492.66 -495.955 -492.685 0.00614165 0.805761 0.592031 -0.0145576 
5 1 -176.809 -147.807 -499.101 0.594407 0.394505 0.650697 0.260078 
7 1 -466.855 179.604 -493.82 0.650508 0.565477 0.357898 0.359144 
2 1 -172.574 499.419 -495.016 0.104175 0.466249 0.651135 0.589732 
3 1 174.896 488.945 -493.881 0.49475 0.583682 0.493426 0.413604 
10 1 489.115 -482.004 -167.007 0.60405 0.372353 0.295086 0.639845 
13 1 -499.013 -174.398 -179.316 0.602088 0.584752 0.24108 0.487274 
14 1 -170.152 -190.728 -169.186 0.115914 0.968789 0.170481 0.137653 
15 1 179.743 -164.274 -204.516 0.0341899 0.136804 0.868123 0.475897 
17 1 -170.632 176.16 -178.647 0.440294 0.787084 0.421636 0.0941429 
16 1 487.578 174.71 -178.56 0.356899 0.15192 0.864303 0.320192 
11 1 -171.834 482.124 -174.41 0.766381 0.497565 0.331558 0.234861 
12 1 171.819 491.527 -179.167 0.645971 0.584239 0.408858 0.272436 
18 1 179.28 161.172 -144.812 0.113231 0.114468 0.820188 0.548969 
19 1 -499.107 -498.91 160.339 0.675582 0.492541 0.331421 0.43721 
20 1 -165.205 -488.507 168.447 0.435514 0.486343 0.00795862 0.757453 
4 1 -478.908 -166.383 499.042 0.703649 0.156529 0.188615 0.666934 
6 1 154.998 -187.547 496.162 0.490335 0.206682 0.247287 0.809755 
9 1 172.371 159.986 479.67 0.576861 0.45828 0.314931 0.598356 
8 1 -161.134 181.033 493.889 0.172255 -0.0544255 0.968066 0.173821 
ITEM: TIMESTEP
140000
ITEM: NUMBER OF ATOMS
20
ITEM: BOX BOUNDS pp pp pp
-5.0000000000000000e+02 5.0000000000000000e+02
-5.0000000000000000e+02 5.0000000000000000e+02
-5.0000000000000000e+02 5.0000000000000000e+02
ITEM: ATOMS id type x y z c_q[1] c_q[2] c_q[3] c_q[4] 
1 1 490.609 -495.188 -498.813 0.0416365 0.802359 0.595165 -0.0162763 
4 1 -473.513 -166.765 -499.358 0.742648 0.119786 0.188203 0.631431 
7 1 -466.391 180.789 -491.06 0.626498 0.555384 0.408816 0.363204 
2 1 -169.763 496.553 -490.058 0.0937893 0.448538 0.643948 0.612656 
3 1 170.759 488.468 -493.967 0.490491 0.584433 0.500639 0.408923 
14 1 -166.654 -185.076 -171.225 0.12386 0.972988 0.16898 0.0969489 
13 1 495.481 -169.141 -177.315 0.599575 0.594344 0.260223 0.468562 
15 1 180.248 -161.719 -208.419 -0.0314166 0.109796 0.88368 0.453947 
17 1 -167.67 179.671 -174.997 0.462776 0.766173 0.425159 0.134376 
16 1 490.482 181.023 -177.143 0.401198 0.128422 0.852671 0.30903 
11 1 -172.686 485.817 -171.922 0.727547 0.530544 0.339507 0.271907 
12 1 172.126 491.343 -183.637 0.593897 0.594879 0.474827 0.260661 
10 1 491.754 -475.783 -164.408 0.628203 0.39554 0.280597 0.608419 
18 1 177.331 160.519 -146.412 0.0818386 0.13057 0.831417 0.533854 
19 1 -498.388 499.302 163.793 0.655715 0.497378 0.350014 0.447374 
20 1 -168.622 -488.815 166.995 0.4069 0.513109 -0.00841739 0.755699 
6 1 162.877 -191.513 491.778 0.51014 0.209446 0.211711 0.806888 
5 1 -180.304 -143.677 499.969 0.581676 0.42791 0.624661 0.297229 
9 1 167.59 153.994 484.555 0.543102 0.496569 0.346923 0.581466 
8 1 -163.572 178.807 499.024 0.126715 -0.0486977 0.977917 0.158901 
ITEM: TIMESTEP
150000
ITEM: NUMBER OF ATOMS
20
ITEM: BOX BOUNDS pp pp pp
-5.0000000000000000e+02 5.0000000000000000e+02
-5.0000000000000000e+02 5.0000000000000000e+02
-5.0000000000000000e+02 5.0000000000000000e+02
ITEM: ATOMS id type x y z c_q[1] c_q[2] c_q[3] c_q[4] 
1 1 487.874 -496.454 -498.857 0.0633796 0.757689 0.648633 -0.0341422 
4 1 -472.258 -169.916 -499.232 0.774751 0.129801 0.196705 0.586702 
7 1 -466.788 176.828 -490.297 0.625653 0.592421 0.401112 0.310972 
2 1 -168.373 498.743 -492.199 0.0768438 0.462545 0.652989 0.594771 
3 1 173.264 489.567 -490.534 0.515036 0.561528 0.497078 0.415136 
10 1 489.686 -473.913 -169.297 0.620742 0.402514 0.279558 0.611972 
14 1 -164.674 -183.432 -175.182 0.0784835 0.969249 0.186925 0.139484 
13 1 494.461 -167.23 -180.061 0.577808 0.623686 0.269399 0.452302 
15 1 173.859 -157.148 -213.238 -0.0104121 0.102489 0.891311 0.441534 
17 1 -171.215 176.713 -172.343 0.468075 0.741625 0.453935 0.15761 
16 1 483.838 178.492 -180.237 0.398084 0.119711 0.850904 0.321186 
11 1 -179.312 483.863 -171.06 0.739289 0.53414 0.314345 0.263313 
12 1 174.216 493.254 -177.573 0.600446 0.592275 0.426854 0.326299 
18 1 171.258 157.069 -149.75 0.0985958 0.148735 0.814422 0.552153 
19 1 -498.411 -499.293 163.184 0.63496 0.504245 0.397479 0.42962 
20 1 -159.964 -491.696 169.6 0.427161 0.531381 -0.0331604 0.7308 
6 1 159.949 -182.877 496.066 0.466187 0.207389 0.21337 0.833146 
5 1 -178.208 -143.849 496.528 0.590462 0.36746 0.658922 0.286617 
9 1 169.328 156.404 485.422 0.535894 0.507596 0.349099 0.577316 
8 1 -170.525 178.685 498.026 0.0872738 -0.0387452 0.984116 0.149658 
ITEM: TIMESTEP
160000
ITEM: NUMBER OF ATOMS
20
ITEM: BOX BOUNDS pp pp pp
-5.0000000000000000e+02 5.0000000000000000e+02
-5.0000000000000000e+02 5.0000000000000000e+02
-5.0000000000000000e+02 5.0000000000000000e+02
ITEM: ATOMS id type x y z c_q[1] c_q[2] c_q[3] c_q[4] 
1 1 492.441 -490.891 499.21 0.0505582 0.768332 0.627498 -0.115573 
7 1 -463.366 178.03 -489.848 0.614566 0.607628 0.399625 0.30561 
2 1 -166.964 496.913 -491.009 0.0624208 0.495443 0.652951 0.569469 
3 1 171.858 490.963 -489.71 0.514774 0.542714 0.478012 0.460406 
14 1 -160.694 -176.922 -168.536 0.0756675 0.958707 0.206152 0.180711 
15 1 173.946 -156.829 -215.807 -0.0301153 0.0818576 0.88949 0.448554 
13 1 495.322 -164.802 -180.92 0.587221 0.605172 0.275004 0.461856 
17 1 -166.695 173.833 -169.536 0.445234 0.739138 0.487239 0.134312 
16 1 479.007 182.174 -184.322 0.429211 0.122869 0.823601 0.349802 
11 1 -185.049 479.472 -173.315 0.748574 0.515751 0.320822 0.265917 
12 1 170.702 497.053 -174.589 0.575283 0.606461 0.466427 0.28931 
10 1 489.358 -474.056 -164.916 0.62638 0.405471 0.277464 0.60519 
18 1 180.267 159.826 -150.85 0.0493784 0.096242 0.833721 0.541488 
19 1 -495.028 498.637 161.009 0.631976 0.461573 0.343076 0.519476 
20 1 -163.136 -492.608 163.121 0.386433 0.530766 -0.0174553 0.75409 
4 1 -467.404 -177.119 -499.182 0.779561 0.162916 0.213707 0.56575 
6 1 156.993 -184.165 495.884 0.491043 0.228956 0.19955 0.816478 
5 1 -180.187 -137.274 493.899 0.60432 0.359409 0.652272 0.283131 
9 1 167.277 155.157 486.789 0.536562 0.496461 0.394536 0.55675 
8 1 -166.797 181.485 494.884 0.0536853 0.037693 0.987816 0.141129 
ITEM: TIMESTEP
170000
ITEM: NUMBER OF ATOMS
20
ITEM: BOX BOUNDS pp pp pp
-5.0000000000000000e+02 5.0000000000000000e+02
-5.0000000000000000e+02 5.0000000000000000e+02
-5.0000000000000000e+02 5.0000000000000000e+02
ITEM: ATOMS id type x y z c_q[1] c_q[2] c_q[3] c_q[4] 
7 1 -468.756 177.037 -492.207 0.592484 0.6253 0.401713 0.310787 
2 1 -163.131 499.401 -495.46 0.0594318 0.464516 0.669503 0.576592 
3 1 168.975 490.56 -492.591 0.495674 0.57371 0.469047 0.452945 
10 1 486.879 -472.284 -168.466 0.651057 0.362339 0.274996 0.607628 
13 1 -500.011 -164.283 -187.066 0.580427 0.609848 0.293454 0.45285 
15 1 170.682 -160.175 -220.84 -0.0417885 0.0940483 0.906656 0.409126 
17 1 -163.207 168.547 -166.991 0.467991 0.740576 0.470199 0.106977 
16 1 484.756 183.602 -183.604 0.426146 0.0943113 0.83093 0.345051 
11 1 -182.568 480.682 -168.624 0.757349 0.516953 0.313044 0.247357 
12 1 170.186 499.527 -173.237 0.591265 0.586179 0.46631 0.298923 
14 1 -160.803 -178.981 -167.241 0.0362732 0.940513 0.288564 0.175641 
18 1 184.39 162.392 -148.924 0.0806117 0.0890829 0.841934 0.526035 
20 1 -167.544 -487.556 161.287 0.368231 0.52255 -0.0512189 0.767284 
19 1 -492.74 494.737 159.306 0.5924 0.4841 0.392701 0.510387 
1 1 494.5 -493.644 499.68 0.0627814 0.756903 0.642516 -0.101632 
4 1 -465.427 -178.443 496.783 0.77211 0.158324 0.261879 0.556956 
6 1 155.967 -190.133 495.115 0.530497 0.255088 0.17798 0.78856 
5 1 -181.938 -134.235 494.48 0.645293 0.337497 0.627474 0.275625 
9 1 162.122 156.181 483.559 0.531095 0.528372 0.396795 0.530392 
8 1 -166.818 187.483 495.081 0.0414923 -0.00835488 0.989532 0.137969 
ITEM: TIMESTEP
180000
ITEM: NUMBER OF ATOMS
20
ITEM: BOX BOUNDS pp pp pp
-5.0000000000000000e+02 5.0000000000000000e+02
-5.0000000000000000e+02 5.0000000000000000e+02
-5.0000000000000000e+02 5.0000000000000000e+02
ITEM: ATOMS id type x y z c_q[1] c_q[2] c_q[3] c_q[4] 
2 1 -167.606 -494.872 -497.16 0.0630206 0.497988 0.658949 0.560199 
7 1 -468.104 179.845 -495.684 0.603366 0.620424 0.35693 0.351604 
3 1 169.927 487.497 -489.412 0.464031 0.578474 0.433025 0.512378 
12 1 171.019 -498.515 -170.057 0.576591 0.572466 0.48986 0.316011 
10 1 493.143 -467.364 -170.92 0.664202 0.317326 0.238491 0.633452 
14 1 -159.295 -181.857 -166.572 0.0404364 0.932752 0.283442 0.219088 
13 1 -499.383 -167.052 -189.215 0.552842 0.67504 0.250346 0.419539 
15 1 173.713 -159.236 -216.705 -0.0365348 0.0569209 0.911526 0.405642 
17 1 -162.601 169.285 -169.389 0.481598 0.718166 0.480746 0.145551 
16 1 483.839 187.566 -191.665 0.477607 0.0812586 0.802883 0.347371 
11 1 -174.756 480.367 -168.29 0.762043 0.507411 0.314012 0.251437 
18 1 187.982 164.292 -154.124 0.0708227 0.0388493 0.817711 0.569933 
20 1 -168.839 -483.669 162.988 0.359244 0.550231 -0.0816531 0.749348 