ITEM: TIMESTEP
0
ITEM: NUMBER OF ATOMS
45
ITEM: BOX BOUNDS
-500.000000 500.000000
-500.000000 500.000000
-500.000000 500.000000
ITEM: ATOMS id type x y z c_q[1] c_q[2] c_q[3] c_q[4]
1 1 -500.000000 -500.000000 -500.000000 0.661750 0.488421 0.188733 0.536574
2 1 -250.000000 -500.000000 -500.000000 0.955179 0.131691 0.129688 0.231239
3 1 0.000000 -500.000000 -500.000000 0.646389 0.761085 0.000025 0.054138
4 1 250.000000 -500.000000 -500.000000 0.724879 0.438627 0.086984 0.524014
5 1 -500.000000 -250.000000 -500.000000 0.820198 0.030472 0.452282 0.348981
6 1 -250.000000 -250.000000 -500.000000 0.480441 0.026024 0.865734 0.137853
7 1 0.000000 -250.000000 -500.000000 0.838430 0.333733 0.290154 0.318541
8 1 250.000000 -250.000000 -500.000000 0.675706 0.494119 0.501439 0.218693
9 1 -500.000000 0.000000 -500.000000 0.456838 0.598944 0.553842 0.354718
10 1 -250.000000 0.000000 -500.000000 0.696199 0.535710 0.053045 0.474877
11 1 0.000000 0.000000 -500.000000 0.057461 0.412911 0.689498 0.592280
12 1 250.000000 0.000000 -500.000000 0.367382 0.039168 0.561587 0.740349
13 1 -500.000000 250.000000 -500.000000 0.400623 0.615487 0.636568 0.235495
14 1 -250.000000 250.000000 -500.000000 0.103662 0.565021 0.722635 0.384453
15 1 0.000000 250.000000 -500.000000 0.709400 0.386052 0.432721 0.400585
16 1 250.000000 250.000000 -500.000000 0.566264 0.234875 0.025793 0.789629
17 1 -500.000000 -500.000000 -250.000000 0.557958 0.512777 0.503786 0.414658
18 1 -250.000000 -500.000000 -250.000000 0.635989 0.157000 0.568780 0.497351
19 1 0.000000 -500.000000 -250.000000 0.369461 0.498956 0.581858 0.525341
20 1 250.000000 -500.000000 -250.000000 0.228376 0.180519 0.700906 0.651143
21 1 -500.000000 -250.000000 -250.000000 0.084436 0.600970 0.613018 0.505881
22 1 -250.000000 -250.000000 -250.000000 0.600987 0.585799 0.478837 0.257623
23 1 0.000000 -250.000000 -250.000000 0.636281 0.622828 0.006105 0.455186
24 1 250.000000 -250.000000 -250.000000 0.236806 0.285993 0.832336 0.411518
25 1 -500.000000 0.000000 -250.000000 0.566075 0.803647 0.092185 0.158786
26 1 -250.000000 0.000000 -250.000000 0.570316 0.084813 0.605921 0.548092
27 1 0.000000 0.000000 -250.000000 0.255903 0.200191 0.812756 0.483595
28 1 250.000000 0.000000 -250.000000 0.461685 0.824339 0.325912 0.033061
29 1 -500.000000 250.000000 -250.000000 0.550456 0.787957 0.274767 0.024989
30 1 -250.000000 250.000000 -250.000000 0.805719 0.283697 0.083637 0.513164
31 1 0.000000 250.000000 -250.000000 0.587134 0.637319 0.130045 0.481857
32 1 250.000000 250.000000 -250.000000 0.411237 0.559015 0.607480 0.386463
33 1 -500.000000 -500.000000 0.000000 0.073832 0.410028 0.318179 0.851580
34 1 -250.000000 -500.000000 0.000000 0.632986 0.381901 0.017281 0.673188
35 1 0.000000 -500.000000 0.000000 0.450537 0.068831 0.465009 0.758977
36 1 250.000000 -500.000000 0.000000 0.487931 0.205047 0.792183 0.303851
37 1 -500.000000 -250.000000 0.000000 0.419128 0.603000 0.107324 0.670227
38 1 -250.000000 -250.000000 0.000000 0.447608 0.691746 0.466341 0.321963
39 1 0.000000 -250.000000 0.000000 0.251919 0.710486 0.561274 0.341639
40 1 250.000000 -250.000000 0.000000 0.779232 0.509602 0.361968 0.045638
41 1 -500.000000 0.000000 0.000000 0.023508 0.187560 0.204440 0.960454
42 1 -250.000000 0.000000 0.000000 0.210806 0.432177 0.105496 0.870434
43 1 0.000000 0.000000 0.000000 0.151369 0.112355 0.843056 0.503706
44 1 250.000000 0.000000 0.000000 0.207185 0.545401 0.156099 0.797022
45 1 -500.000000 250.000000 0.000000 0.292623 0.291009 0.365708 0.834232
