ITEM: TIMESTEP
0
ITEM: NUMBER OF ATOMS
10
ITEM: BOX BOUNDS
-500.000000 500.000000
-500.000000 500.000000
-500.000000 500.000000
ITEM: ATOMS id type x y z c_q[1] c_q[2] c_q[3] c_q[4]
1 1 -500.000000 -500.000000 -500.000000 0.067739 0.815739 0.456000 0.349350
2 1 -166.666667 -500.000000 -500.000000 0.587404 0.509773 0.554694 0.295641
3 1 166.666667 -500.000000 -500.000000 0.081448 0.172271 0.085049 0.977986
4 1 -500.000000 -166.666667 -500.000000 0.467418 0.760333 0.204544 0.401965
5 1 -166.666667 -166.666667 -500.000000 0.225713 0.377427 0.674095 0.593463
6 1 166.666667 -166.666667 -500.000000 0.234119 0.566780 0.373774 0.695875
7 1 -500.000000 166.666667 -500.000000 0.099573 0.284664 0.927903 0.219197
8 1 -166.666667 166.666667 -500.000000 0.223430 0.693748 0.067291 0.681370
9 1 166.666667 166.666667 -500.000000 0.584828 0.651726 0.466585 0.124608
10 1 -500.000000 -500.000000 -166.666667 0.370205 0.041279 0.272227 0.887207
