LAMMPS data file

10 atoms
10 ellipsoids
0 bonds
0 angles
0 dihedrals

1 atom types
0 bond types
0 angle types
0 dihedral types

-500.000000 500.000000 xlo xhi
-500.000000 500.000000 ylo yhi
-500.000000 500.000000 zlo zhi

Masses

1 203166.000000

Atoms

1 1 -500.000000 -500.000000 -500.000000 1 1.000000 3 0.000000
2 1 -166.666667 -500.000000 -500.000000 1 1.000000 4 0.000000
3 1 166.666667 -500.000000 -500.000000 1 1.000000 5 0.000000
4 1 -500.000000 -166.666667 -500.000000 1 1.000000 6 0.000000
5 1 -166.666667 -166.666667 -500.000000 1 1.000000 7 0.000000
6 1 166.666667 -166.666667 -500.000000 1 1.000000 8 0.000000
7 1 -500.000000 166.666667 -500.000000 1 1.000000 9 0.000000
8 1 -166.666667 166.666667 -500.000000 1 1.000000 10 0.000000
9 1 166.666667 166.666667 -500.000000 1 1.000000 11 0.000000
10 1 -500.000000 -500.000000 -166.666667 1 1.000000 12 0.000000

Ellipsoids

1 55.000000 110.000000 110.000000 0.067739 0.815739 0.456000 0.349350
2 55.000000 110.000000 110.000000 0.587404 0.509773 0.554694 0.295641
3 55.000000 110.000000 110.000000 0.081448 0.172271 0.085049 0.977986
4 55.000000 110.000000 110.000000 0.467418 0.760333 0.204544 0.401965
5 55.000000 110.000000 110.000000 0.225713 0.377427 0.674095 0.593463
6 55.000000 110.000000 110.000000 0.234119 0.566780 0.373774 0.695875
7 55.000000 110.000000 110.000000 0.099573 0.284664 0.927903 0.219197
8 55.000000 110.000000 110.000000 0.223430 0.693748 0.067291 0.681370
9 55.000000 110.000000 110.000000 0.584828 0.651726 0.466585 0.124608
10 55.000000 110.000000 110.000000 0.370205 0.041279 0.272227 0.887207




