ITEM: TIMESTEP
0
ITEM: NUMBER OF ATOMS
65
ITEM: BOX BOUNDS
-500.000000 500.000000
-500.000000 500.000000
-500.000000 500.000000
ITEM: ATOMS id type x y z c_q[1] c_q[2] c_q[3] c_q[4]
1 1 -500.000000 -500.000000 -500.000000 0.510359 0.035337 0.738509 0.439192
2 1 -300.000000 -500.000000 -500.000000 0.865317 0.457392 0.026251 0.203299
3 1 -100.000000 -500.000000 -500.000000 0.400290 0.223195 0.885978 0.070678
4 1 100.000000 -500.000000 -500.000000 0.472578 0.801168 0.293646 0.220390
5 1 300.000000 -500.000000 -500.000000 0.533317 0.202118 0.770596 0.284434
6 1 -500.000000 -300.000000 -500.000000 0.522936 0.106561 0.022413 0.845388
7 1 -300.000000 -300.000000 -500.000000 0.597558 0.758828 0.104860 0.236873
8 1 -100.000000 -300.000000 -500.000000 0.628100 0.494361 0.588548 0.121278
9 1 100.000000 -300.000000 -500.000000 0.274118 0.658747 0.532894 0.454902
10 1 300.000000 -300.000000 -500.000000 0.670497 0.179060 0.631561 0.345691
11 1 -500.000000 -100.000000 -500.000000 0.502361 0.339710 0.239573 0.758179
12 1 -300.000000 -100.000000 -500.000000 0.144529 0.560876 0.041423 0.814134
13 1 -100.000000 -100.000000 -500.000000 0.078321 0.214561 0.915764 0.330464
14 1 100.000000 -100.000000 -500.000000 0.686414 0.454792 0.183163 0.537077
15 1 300.000000 -100.000000 -500.000000 0.750988 0.588080 0.295089 0.055690
16 1 -500.000000 100.000000 -500.000000 0.466284 0.620964 0.150908 0.611726
17 1 -300.000000 100.000000 -500.000000 0.851676 0.082353 0.444831 0.264559
18 1 -100.000000 100.000000 -500.000000 0.152698 0.120815 0.944547 0.264422
19 1 100.000000 100.000000 -500.000000 0.561985 0.379198 0.562223 0.473590
20 1 300.000000 100.000000 -500.000000 0.638686 0.170920 0.375242 0.649661
21 1 -500.000000 300.000000 -500.000000 0.562281 0.419978 0.654367 0.281537
22 1 -300.000000 300.000000 -500.000000 0.003043 0.334400 0.661067 0.671683
23 1 -100.000000 300.000000 -500.000000 0.515517 0.543898 0.288932 0.595764
24 1 100.000000 300.000000 -500.000000 0.389096 0.838949 0.140240 0.353697
25 1 300.000000 300.000000 -500.000000 0.392615 0.715861 0.559427 0.142960
26 1 -500.000000 -500.000000 -300.000000 0.100687 0.794510 0.578518 0.154704
27 1 -300.000000 -500.000000 -300.000000 0.543115 0.555592 0.581549 0.241130
28 1 -100.000000 -500.000000 -300.000000 0.070472 0.109247 0.737197 0.663053
29 1 100.000000 -500.000000 -300.000000 0.237529 0.598218 0.278236 0.712952
30 1 300.000000 -500.000000 -300.000000 0.178475 0.664408 0.205322 0.696097
31 1 -500.000000 -300.000000 -300.000000 0.618407 0.113604 0.235072 0.741220
32 1 -300.000000 -300.000000 -300.000000 0.692761 0.059884 0.380718 0.609549
33 1 -100.000000 -300.000000 -300.000000 0.208340 0.167315 0.696808 0.665626
34 1 100.000000 -300.000000 -300.000000 0.509838 0.752682 0.395495 0.130836
35 1 300.000000 -300.000000 -300.000000 0.448418 0.166069 0.392417 0.785717
36 1 -500.000000 -100.000000 -300.000000 0.086336 0.033781 0.991406 0.092298
37 1 -300.000000 -100.000000 -300.000000 0.184594 0.741463 0.582180 0.277891
38 1 -100.000000 -100.000000 -300.000000 0.090794 0.569857 0.600581 0.553463
39 1 100.000000 -100.000000 -300.000000 0.575186 0.206588 0.566784 0.552484
40 1 300.000000 -100.000000 -300.000000 0.639458 0.136385 0.753759 0.065880
41 1 -500.000000 100.000000 -300.000000 0.437965 0.326215 0.178060 0.818575
42 1 -300.000000 100.000000 -300.000000 0.816702 0.134897 0.420533 0.371421
43 1 -100.000000 100.000000 -300.000000 0.456707 0.849152 0.043750 0.261622
44 1 100.000000 100.000000 -300.000000 0.328962 0.358059 0.835645 0.255489
45 1 300.000000 100.000000 -300.000000 0.129261 0.399146 0.323928 0.847965
46 1 -500.000000 300.000000 -300.000000 0.321046 0.575152 0.499898 0.562345
47 1 -300.000000 300.000000 -300.000000 0.316829 0.151585 0.608008 0.712016
48 1 -100.000000 300.000000 -300.000000 0.457293 0.072098 0.858423 0.220896
49 1 100.000000 300.000000 -300.000000 0.457919 0.081775 0.645353 0.605923
50 1 300.000000 300.000000 -300.000000 0.478298 0.568215 0.129467 0.656963
51 1 -500.000000 -500.000000 -100.000000 0.532686 0.093032 0.650174 0.533727
52 1 -300.000000 -500.000000 -100.000000 0.581387 0.451454 0.617428 0.277419
53 1 -100.000000 -500.000000 -100.000000 0.654946 0.452022 0.393642 0.460183
54 1 100.000000 -500.000000 -100.000000 0.227946 0.389795 0.455430 0.767258
55 1 300.000000 -500.000000 -100.000000 0.073032 0.733747 0.513916 0.438375
56 1 -500.000000 -300.000000 -100.000000 0.294662 0.371433 0.691005 0.545640
57 1 -300.000000 -300.000000 -100.000000 0.479588 0.204283 0.579285 0.626652
58 1 -100.000000 -300.000000 -100.000000 0.801392 0.428753 0.294693 0.295123
59 1 100.000000 -300.000000 -100.000000 0.596467 0.535668 0.552633 0.227778
60 1 300.000000 -300.000000 -100.000000 0.586303 0.249220 0.581082 0.506441
61 1 -500.000000 -100.000000 -100.000000 0.259937 0.487866 0.753197 0.356530
62 1 -300.000000 -100.000000 -100.000000 0.598188 0.403686 0.339067 0.603525
63 1 -100.000000 -100.000000 -100.000000 0.585390 0.320954 0.327755 0.668493
64 1 100.000000 -100.000000 -100.000000 0.792755 0.573356 0.205556 0.023429
65 1 300.000000 -100.000000 -100.000000 0.430968 0.360267 0.488060 0.668035
