LAMMPS data file

10 atoms
10 ellipsoids
0 bonds
0 angles
0 dihedrals

1 atom types
0 bond types
0 angle types
0 dihedral types

-500.000000 500.000000 xlo xhi
-500.000000 500.000000 ylo yhi
-500.000000 500.000000 zlo zhi

Masses

1 203166.000000

Atoms

1 1 -500.000000 -500.000000 -500.000000 1 1.000000 3 0.000000
2 1 -166.666667 -500.000000 -500.000000 1 1.000000 4 0.000000
3 1 166.666667 -500.000000 -500.000000 1 1.000000 5 0.000000
4 1 -500.000000 -166.666667 -500.000000 1 1.000000 6 0.000000
5 1 -166.666667 -166.666667 -500.000000 1 1.000000 7 0.000000
6 1 166.666667 -166.666667 -500.000000 1 1.000000 8 0.000000
7 1 -500.000000 166.666667 -500.000000 1 1.000000 9 0.000000
8 1 -166.666667 166.666667 -500.000000 1 1.000000 10 0.000000
9 1 166.666667 166.666667 -500.000000 1 1.000000 11 0.000000
10 1 -500.000000 -500.000000 -166.666667 1 1.000000 12 0.000000

Ellipsoids

1 55.000000 110.000000 110.000000 0.629399 0.715059 0.302651 0.030826
2 55.000000 110.000000 110.000000 0.766275 0.578033 0.269529 0.077814
3 55.000000 110.000000 110.000000 0.729097 0.083940 0.577471 0.357629
4 55.000000 110.000000 110.000000 0.091709 0.690875 0.654924 0.292158
5 55.000000 110.000000 110.000000 0.010114 0.118028 0.465792 0.876929
6 55.000000 110.000000 110.000000 0.074224 0.460821 0.846825 0.254993
7 55.000000 110.000000 110.000000 0.710666 0.132070 0.684513 0.094620
8 55.000000 110.000000 110.000000 0.365485 0.323502 0.568122 0.662574
9 55.000000 110.000000 110.000000 0.146487 0.585909 0.605371 0.518438
10 55.000000 110.000000 110.000000 0.468860 0.712675 0.077123 0.516058




