LAMMPS data file

55 atoms
55 ellipsoids
0 bonds
0 angles
0 dihedrals

1 atom types
0 bond types
0 angle types
0 dihedral types

-500.000000 500.000000 xlo xhi
-500.000000 500.000000 ylo yhi
-500.000000 500.000000 zlo zhi

Masses

1 203166.000000

Atoms

1 1 -500.000000 -500.000000 -500.000000 1 1.000000 3 0.000000
2 1 -250.000000 -500.000000 -500.000000 1 1.000000 4 0.000000
3 1 0.000000 -500.000000 -500.000000 1 1.000000 5 0.000000
4 1 250.000000 -500.000000 -500.000000 1 1.000000 6 0.000000
5 1 -500.000000 -250.000000 -500.000000 1 1.000000 7 0.000000
6 1 -250.000000 -250.000000 -500.000000 1 1.000000 8 0.000000
7 1 0.000000 -250.000000 -500.000000 1 1.000000 9 0.000000
8 1 250.000000 -250.000000 -500.000000 1 1.000000 10 0.000000
9 1 -500.000000 0.000000 -500.000000 1 1.000000 11 0.000000
10 1 -250.000000 0.000000 -500.000000 1 1.000000 12 0.000000
11 1 0.000000 0.000000 -500.000000 1 1.000000 13 0.000000
12 1 250.000000 0.000000 -500.000000 1 1.000000 14 0.000000
13 1 -500.000000 250.000000 -500.000000 1 1.000000 15 0.000000
14 1 -250.000000 250.000000 -500.000000 1 1.000000 16 0.000000
15 1 0.000000 250.000000 -500.000000 1 1.000000 17 0.000000
16 1 250.000000 250.000000 -500.000000 1 1.000000 18 0.000000
17 1 -500.000000 -500.000000 -250.000000 1 1.000000 19 0.000000
18 1 -250.000000 -500.000000 -250.000000 1 1.000000 20 0.000000
19 1 0.000000 -500.000000 -250.000000 1 1.000000 21 0.000000
20 1 250.000000 -500.000000 -250.000000 1 1.000000 22 0.000000
21 1 -500.000000 -250.000000 -250.000000 1 1.000000 23 0.000000
22 1 -250.000000 -250.000000 -250.000000 1 1.000000 24 0.000000
23 1 0.000000 -250.000000 -250.000000 1 1.000000 25 0.000000
24 1 250.000000 -250.000000 -250.000000 1 1.000000 26 0.000000
25 1 -500.000000 0.000000 -250.000000 1 1.000000 27 0.000000
26 1 -250.000000 0.000000 -250.000000 1 1.000000 28 0.000000
27 1 0.000000 0.000000 -250.000000 1 1.000000 29 0.000000
28 1 250.000000 0.000000 -250.000000 1 1.000000 30 0.000000
29 1 -500.000000 250.000000 -250.000000 1 1.000000 31 0.000000
30 1 -250.000000 250.000000 -250.000000 1 1.000000 32 0.000000
31 1 0.000000 250.000000 -250.000000 1 1.000000 33 0.000000
32 1 250.000000 250.000000 -250.000000 1 1.000000 34 0.000000
33 1 -500.000000 -500.000000 0.000000 1 1.000000 35 0.000000
34 1 -250.000000 -500.000000 0.000000 1 1.000000 36 0.000000
35 1 0.000000 -500.000000 0.000000 1 1.000000 37 0.000000
36 1 250.000000 -500.000000 0.000000 1 1.000000 38 0.000000
37 1 -500.000000 -250.000000 0.000000 1 1.000000 39 0.000000
38 1 -250.000000 -250.000000 0.000000 1 1.000000 40 0.000000
39 1 0.000000 -250.000000 0.000000 1 1.000000 41 0.000000
40 1 250.000000 -250.000000 0.000000 1 1.000000 42 0.000000
41 1 -500.000000 0.000000 0.000000 1 1.000000 43 0.000000
42 1 -250.000000 0.000000 0.000000 1 1.000000 44 0.000000
43 1 0.000000 0.000000 0.000000 1 1.000000 45 0.000000
44 1 250.000000 0.000000 0.000000 1 1.000000 46 0.000000
45 1 -500.000000 250.000000 0.000000 1 1.000000 47 0.000000
46 1 -250.000000 250.000000 0.000000 1 1.000000 48 0.000000
47 1 0.000000 250.000000 0.000000 1 1.000000 49 0.000000
48 1 250.000000 250.000000 0.000000 1 1.000000 50 0.000000
49 1 -500.000000 -500.000000 250.000000 1 1.000000 51 0.000000
50 1 -250.000000 -500.000000 250.000000 1 1.000000 52 0.000000
51 1 0.000000 -500.000000 250.000000 1 1.000000 53 0.000000
52 1 250.000000 -500.000000 250.000000 1 1.000000 54 0.000000
53 1 -500.000000 -250.000000 250.000000 1 1.000000 55 0.000000
54 1 -250.000000 -250.000000 250.000000 1 1.000000 56 0.000000
55 1 0.000000 -250.000000 250.000000 1 1.000000 57 0.000000

Ellipsoids

1 55.000000 110.000000 110.000000 0.653640 0.619157 0.044968 0.432871
2 55.000000 110.000000 110.000000 0.584146 0.391080 0.061138 0.708585
3 55.000000 110.000000 110.000000 0.259006 0.858811 0.437265 0.064497
4 55.000000 110.000000 110.000000 0.061720 0.805232 0.266190 0.526246
5 55.000000 110.000000 110.000000 0.474908 0.413933 0.362703 0.686708
6 55.000000 110.000000 110.000000 0.285718 0.323423 0.746703 0.506159
7 55.000000 110.000000 110.000000 0.679158 0.547199 0.158415 0.462842
8 55.000000 110.000000 110.000000 0.078394 0.175709 0.557700 0.807435
9 55.000000 110.000000 110.000000 0.788496 0.497234 0.361582 0.017048
10 55.000000 110.000000 110.000000 0.640229 0.514923 0.521031 0.231276
11 55.000000 110.000000 110.000000 0.027527 0.642489 0.325393 0.693231
12 55.000000 110.000000 110.000000 0.305626 0.385618 0.536658 0.685486
13 55.000000 110.000000 110.000000 0.205553 0.897254 0.311626 0.235740
14 55.000000 110.000000 110.000000 0.708472 0.011346 0.268989 0.652367
15 55.000000 110.000000 110.000000 0.496308 0.272745 0.598278 0.566879
16 55.000000 110.000000 110.000000 0.647578 0.388317 0.488851 0.436895
17 55.000000 110.000000 110.000000 0.026301 0.585140 0.801875 0.117965
18 55.000000 110.000000 110.000000 0.744619 0.457871 0.463293 0.145799
19 55.000000 110.000000 110.000000 0.867436 0.278673 0.345555 0.224697
20 55.000000 110.000000 110.000000 0.673328 0.363702 0.631446 0.125006
21 55.000000 110.000000 110.000000 0.180656 0.173084 0.936562 0.245474
22 55.000000 110.000000 110.000000 0.392048 0.716602 0.134417 0.560991
23 55.000000 110.000000 110.000000 0.587042 0.473880 0.413219 0.509970
24 55.000000 110.000000 110.000000 0.335987 0.185898 0.441078 0.811175
25 55.000000 110.000000 110.000000 0.279435 0.660246 0.375616 0.587285
26 55.000000 110.000000 110.000000 0.475332 0.621357 0.515680 0.349356
27 55.000000 110.000000 110.000000 0.108139 0.651732 0.424444 0.619192
28 55.000000 110.000000 110.000000 0.193550 0.027642 0.398582 0.896051
29 55.000000 110.000000 110.000000 0.382402 0.771838 0.491305 0.129052
30 55.000000 110.000000 110.000000 0.296892 0.220646 0.511248 0.775755
31 55.000000 110.000000 110.000000 0.142884 0.646625 0.438372 0.607693
32 55.000000 110.000000 110.000000 0.566865 0.375678 0.725398 0.106433
33 55.000000 110.000000 110.000000 0.615050 0.334767 0.705919 0.106415
34 55.000000 110.000000 110.000000 0.434345 0.877077 0.098385 0.180001
35 55.000000 110.000000 110.000000 0.084001 0.776152 0.142118 0.608552
36 55.000000 110.000000 110.000000 0.310218 0.237848 0.416347 0.820883
37 55.000000 110.000000 110.000000 0.211088 0.649245 0.730326 0.023389
38 55.000000 110.000000 110.000000 0.447885 0.587120 0.471749 0.481812
39 55.000000 110.000000 110.000000 0.271877 0.616098 0.332559 0.660235
40 55.000000 110.000000 110.000000 0.068493 0.699382 0.089126 0.705855
41 55.000000 110.000000 110.000000 0.536996 0.523044 0.553502 0.362899
42 55.000000 110.000000 110.000000 0.048350 0.608415 0.453270 0.649646
43 55.000000 110.000000 110.000000 0.624822 0.300448 0.319319 0.646037
44 55.000000 110.000000 110.000000 0.058126 0.664829 0.058310 0.742444
45 55.000000 110.000000 110.000000 0.906867 0.381804 0.131846 0.120147
46 55.000000 110.000000 110.000000 0.206314 0.866187 0.285866 0.354167
47 55.000000 110.000000 110.000000 0.313308 0.795176 0.510342 0.095306
48 55.000000 110.000000 110.000000 0.318766 0.302094 0.888139 0.135416
49 55.000000 110.000000 110.000000 0.385269 0.705704 0.233439 0.546860
50 55.000000 110.000000 110.000000 0.084482 0.103136 0.385968 0.912828
51 55.000000 110.000000 110.000000 0.689623 0.035307 0.658007 0.300334
52 55.000000 110.000000 110.000000 0.430741 0.428347 0.528410 0.593098
53 55.000000 110.000000 110.000000 0.284989 0.572036 0.506759 0.578577
54 55.000000 110.000000 110.000000 0.089242 0.439877 0.567741 0.690083
55 55.000000 110.000000 110.000000 0.431863 0.738372 0.517254 0.027360




