ITEM: TIMESTEP
0
ITEM: NUMBER OF ATOMS
55
ITEM: BOX BOUNDS pp pp pp
-5.0000000000000000e+02 5.0000000000000000e+02
-5.0000000000000000e+02 5.0000000000000000e+02
-5.0000000000000000e+02 5.0000000000000000e+02
ITEM: ATOMS id type x y z c_q[1] c_q[2] c_q[3] c_q[4] 
1 1 -500 -500 -500 0.65364 0.619157 0.044968 0.432871 
2 1 -250 -500 -500 0.584146 0.39108 0.061138 0.708585 
3 1 0 -500 -500 0.259006 0.858811 0.437265 0.064497 
4 1 250 -500 -500 0.06172 0.805232 0.26619 0.526246 
5 1 -500 -250 -500 0.474908 0.413933 0.362703 0.686708 
6 1 -250 -250 -500 0.285718 0.323423 0.746703 0.506159 
7 1 0 -250 -500 0.679158 0.547199 0.158415 0.462842 
8 1 250 -250 -500 0.078394 0.175709 0.5577 0.807435 
9 1 -500 0 -500 0.788496 0.497234 0.361582 0.017048 
10 1 -250 0 -500 0.640229 0.514923 0.521031 0.231276 
11 1 0 0 -500 0.027527 0.642489 0.325393 0.693231 
12 1 250 0 -500 0.305626 0.385618 0.536658 0.685486 
13 1 -500 250 -500 0.205553 0.897254 0.311626 0.23574 
14 1 -250 250 -500 0.708472 0.011346 0.268989 0.652367 
15 1 0 250 -500 0.496308 0.272745 0.598278 0.566879 
16 1 250 250 -500 0.647578 0.388317 0.488851 0.436895 
17 1 -500 -500 -250 0.026301 0.58514 0.801875 0.117965 
18 1 -250 -500 -250 0.744619 0.457871 0.463293 0.145799 
19 1 0 -500 -250 0.867436 0.278673 0.345555 0.224697 
20 1 250 -500 -250 0.673328 0.363702 0.631446 0.125006 
21 1 -500 -250 -250 0.180656 0.173084 0.936562 0.245474 
22 1 -250 -250 -250 0.392048 0.716602 0.134417 0.560991 
23 1 0 -250 -250 0.587042 0.47388 0.413219 0.50997 
24 1 250 -250 -250 0.335987 0.185898 0.441078 0.811175 
25 1 -500 0 -250 0.279435 0.660246 0.375616 0.587285 
26 1 -250 0 -250 0.475332 0.621357 0.51568 0.349356 
27 1 0 0 -250 0.108139 0.651732 0.424444 0.619192 
28 1 250 0 -250 0.19355 0.027642 0.398582 0.896051 
29 1 -500 250 -250 0.382402 0.771838 0.491305 0.129052 
30 1 -250 250 -250 0.296892 0.220646 0.511248 0.775755 
31 1 0 250 -250 0.142884 0.646625 0.438372 0.607693 
32 1 250 250 -250 0.566865 0.375678 0.725398 0.106433 
33 1 -500 -500 0 0.61505 0.334767 0.705919 0.106415 
34 1 -250 -500 0 0.434345 0.877077 0.098385 0.180001 
35 1 0 -500 0 0.084001 0.776152 0.142118 0.608552 
36 1 250 -500 0 0.310218 0.237848 0.416347 0.820883 
37 1 -500 -250 0 0.211088 0.649245 0.730326 0.023389 
38 1 -250 -250 0 0.447885 0.58712 0.471749 0.481812 
39 1 0 -250 0 0.271877 0.616098 0.332559 0.660235 
40 1 250 -250 0 0.068493 0.699382 0.0891259 0.705855 
41 1 -500 0 0 0.536996 0.523044 0.553502 0.362899 
42 1 -250 0 0 0.04835 0.608415 0.45327 0.649646 
43 1 0 0 0 0.624822 0.300448 0.319319 0.646037 
44 1 250 0 0 0.058126 0.664829 0.05831 0.742444 
45 1 -500 250 0 0.906867 0.381804 0.131846 0.120147 
46 1 -250 250 0 0.206314 0.866187 0.285866 0.354167 
47 1 0 250 0 0.313308 0.795176 0.510342 0.095306 
48 1 250 250 0 0.318766 0.302094 0.888139 0.135416 
49 1 -500 -500 250 0.385269 0.705704 0.233439 0.54686 
50 1 -250 -500 250 0.084482 0.103136 0.385968 0.912828 
51 1 0 -500 250 0.689623 0.035307 0.658007 0.300334 
52 1 250 -500 250 0.430741 0.428347 0.52841 0.593098 
53 1 -500 -250 250 0.284989 0.572036 0.506759 0.578577 
54 1 -250 -250 250 0.089242 0.439877 0.567741 0.690083 
55 1 0 -250 250 0.431863 0.738372 0.517254 0.02736 
ITEM: TIMESTEP
10000
ITEM: NUMBER OF ATOMS
55
ITEM: BOX BOUNDS pp pp pp
-5.0000000000000000e+02 5.0000000000000000e+02
-5.0000000000000000e+02 5.0000000000000000e+02
-5.0000000000000000e+02 5.0000000000000000e+02
ITEM: ATOMS id type x y z c_q[1] c_q[2] c_q[3] c_q[4] 
2 1 -248.124 -496.946 -495.904 0.597213 0.351844 0.115908 0.711413 
3 1 -6.15589 -498.318 -496.801 0.287736 0.829306 0.478395 0.0244313 
5 1 -493.394 -250.774 -498.073 0.469429 0.418541 0.392274 0.671253 
6 1 -251.628 -253.198 -496.705 0.306926 0.359896 0.705983 0.527124 
7 1 2.35035 -252.21 -496.824 0.693064 0.539184 0.128374 0.460937 
10 1 -249.561 -3.0715 -498.784 0.601979 0.494537 0.559903 0.282069 
11 1 4.41067 -6.75952 -495.669 0.0782336 0.658174 0.329008 0.672637 
12 1 252.425 -1.72136 -496.137 0.284235 0.368279 0.575629 0.672483 
9 1 -500.006 -2.4654 -498.079 0.797292 0.495794 0.344034 0.0124532 
16 1 245.797 250.483 -499.159 0.643085 0.360696 0.491635 0.463287 
13 1 497.929 256.713 -497.641 0.214923 0.884455 0.307455 0.277522 
4 1 243.624 497.885 -498.336 0.0135399 0.822497 0.262413 0.504434 
17 1 -498.596 -493.971 -256.665 -0.022791 0.621003 0.771763 0.134974 
18 1 -249.337 -499.661 -248.708 0.766403 0.454371 0.441173 0.107423 
19 1 -4.47819 -497.981 -251.708 0.852806 0.267776 0.397 0.208347 
22 1 -248.971 -248.87 -251.818 0.356097 0.748531 0.163682 0.534887 
23 1 -2.45603 -253.222 -247.875 0.59754 0.449921 0.445069 0.492372 
24 1 243.021 -248.853 -245.933 0.322692 0.23288 0.452028 0.798315 
21 1 495.511 -249.739 -255.681 0.157016 0.164048 0.947256 0.226142 
25 1 -494.537 4.27446 -247.937 0.286936 0.679561 0.322338 0.593265 
26 1 -251.106 2.64754 -255.224 0.48633 0.60558 0.529879 0.340563 
27 1 3.52381 0.786923 -251.633 0.0962669 0.632545 0.435631 0.633123 
28 1 246.687 2.41791 -245.478 0.145013 0.0042002 0.403325 0.903484 
29 1 -494.483 249.347 -250.066 0.371799 0.79601 0.464311 0.112025 
30 1 -252.036 249.166 -247.427 0.302787 0.223159 0.512847 0.771691 
31 1 5.12099 247.757 -254.284 0.119629 0.621228 0.475111 0.611584 
32 1 250.455 252.051 -253.64 0.538993 0.410539 0.726781 0.112842 
20 1 247.535 498.699 -251.926 0.693333 0.342748 0.616348 0.148084 
37 1 -499.266 -250.553 1.12326 0.179012 0.688443 0.702442 -0.0239854 
38 1 -250.47 -254.874 -8.78031 0.467693 0.566633 0.463744 0.495109 
39 1 -1.42156 -253.239 -1.88761 0.255339 0.628149 0.300862 0.670607 
40 1 255.662 -254.393 -6.97745 0.0730232 0.735232 0.0895016 0.667901 
43 1 -3.68482 -2.67786 -1.47238 0.611119 0.322642 0.34313 0.636158 
44 1 250.826 0.28663 0.166151 -0.0348213 0.671844 0.11726 0.730523 
41 1 498.903 4.24118 -1.55981 0.537182 0.475724 0.562482 0.410776 
45 1 -496.333 257.451 -4.34135 0.912165 0.371827 0.127401 0.116057 
48 1 251.419 251.997 -2.78803 0.290422 0.250956 0.915363 0.121597 
34 1 -254.46 496.19 0.330382 0.437174 0.878521 0.064375 0.181479 
33 1 -497.985 -498.044 2.90542 0.628256 0.318888 0.702745 0.0987602 
42 1 -251.626 3.85589 1.03081 0.0928525 0.616284 0.42052 0.659344 
46 1 -250.164 255.987 5.88519 0.208476 0.842367 0.307216 0.390608 
47 1 -5.48281 248.581 1.70365 0.322926 0.787781 0.514965 0.0996538 
35 1 -0.140244 498.717 5.23636 0.0494791 0.775433 0.119157 0.618108 
36 1 251.849 498.999 4.24003 0.274203 0.194454 0.435465 0.835087 
52 1 254.716 -496.698 254.817 0.37266 0.405926 0.546381 0.630727 
49 1 496.261 -498.626 249.67 0.372665 0.719847 0.242171 0.533193 
53 1 -495.106 -250.4 247.648 0.313732 0.576052 0.50231 0.5634 
54 1 -251.069 -253.747 244.234 0.157798 0.432871 0.541235 0.703411 
55 1 -2.18434 -249.374 247.503 0.444412 0.750288 0.484204 0.0714978 
50 1 -250.126 492.513 248.509 0.0701316 0.137434 0.354185 0.922359 
51 1 1.82893 497.045 246.866 0.687034 0.0222483 0.646797 0.330368 
1 1 -495.233 498.092 498.656 0.679759 0.612134 -0.00185366 0.404 
8 1 250.117 -252.62 500.028 0.0869263 0.153011 0.58142 0.794344 
14 1 -250.977 249.107 499.478 0.672467 0.0039798 0.280628 0.684851 
15 1 -5.1231 251.599 495.936 0.522701 0.314119 0.578437 0.541778 
ITEM: TIMESTEP
20000
ITEM: NUMBER OF ATOMS
55
ITEM: BOX BOUNDS pp pp pp
-5.0000000000000000e+02 5.0000000000000000e+02
-5.0000000000000000e+02 5.0000000000000000e+02
-5.0000000000000000e+02 5.0000000000000000e+02
ITEM: ATOMS id type x y z c_q[1] c_q[2] c_q[3] c_q[4] 
2 1 -245.942 -496.051 -490.324 0.579213 0.384889 0.134997 0.705796 
5 1 -489.368 -253.096 -493.749 0.495528 0.405642 0.389889 0.661735 
6 1 -247.848 -255.448 -495.091 0.320685 0.300145 0.698771 0.564618 
7 1 1.31939 -248.349 -496.568 0.711983 0.533233 0.131199 0.437641 
8 1 251.701 -252.961 499.761 0.103815 0.116576 0.567193 0.808656 
11 1 -1.23425 -3.02476 -496.447 0.0620888 0.634084 0.353488 0.68493 
12 1 250.555 -2.79875 -492.944 0.352707 0.381175 0.549239 0.654706 
9 1 493.494 -4.31228 -498.435 0.817356 0.480436 0.315439 0.040119 
13 1 493.565 258.223 -495.88 0.255996 0.874168 0.270235 0.311882 
4 1 237.28 494.132 -499.242 -0.0125854 0.836267 0.278055 0.472424 
17 1 -498.476 -489.339 -253.176 -0.0810951 0.623619 0.768991 0.114785 
18 1 -253.51 -496.401 -245.154 0.818178 0.428972 0.365905 0.112612 
22 1 -252.101 -248.276 -249.092 0.365103 0.711301 0.128487 0.586721 
23 1 -0.935653 -251.58 -253.933 0.623289 0.412416 0.43911 0.498604 
24 1 239.33 -246.215 -242.921 0.285662 0.164981 0.432662 0.839037 
21 1 495.325 -252.45 -255.977 0.218927 0.178179 0.926923 0.247258 
26 1 -249.473 -3.33267 -252.15 0.481493 0.59405 0.537409 0.355614 
27 1 3.5134 -1.15386 -257.196 0.101677 0.598769 0.449394 0.65512 
25 1 -495.944 5.09586 -251.932 0.282157 0.669661 0.306316 0.614908 
28 1 239.767 2.4956 -244.817 0.152626 0.0120702 0.400307 0.903501 
29 1 -492.879 256.557 -248.928 0.367694 0.818991 0.43751 0.0513782 
30 1 -249.196 248.282 -244.448 0.32036 0.181423 0.515878 0.773515 
31 1 5.29105 244.165 -258.477 0.126971 0.639594 0.488265 0.579995 
32 1 247.169 247.473 -253.89 0.5054 0.411956 0.745039 0.140645 
19 1 -11.6422 498.67 -255.923 0.834301 0.272405 0.432056 0.207521 
20 1 247.506 -500.153 -250.658 0.703112 0.339547 0.603255 0.162559 
37 1 -498.226 -248.005 -2.0847 0.194947 0.689944 0.696229 -0.035201 
38 1 -250.179 -252.107 -11.8033 0.489481 0.562377 0.474704 0.467758 
39 1 0.396751 -250.281 -6.58374 0.214987 0.604873 0.346827 0.683828 
40 1 260.853 -258.998 -7.06386 0.0433484 0.727188 0.0875442 0.679451 
43 1 -1.0794 -0.096494 -0.417253 0.583502 0.305665 0.374308 0.652677 
41 1 495.188 3.22134 -2.24585 0.602853 0.492592 0.500494 0.378717 
45 1 -496.182 257.589 -8.69204 0.891077 0.395337 0.172632 0.141028 
48 1 246.948 246.709 -8.65386 0.279757 0.248101 0.916522 0.142021 
33 1 -492.274 499.927 4.75548 0.611266 0.310373 0.727383 0.0306025 
44 1 249.905 -0.881898 3.60751 -0.0150959 0.681577 0.0957084 0.725303 
42 1 -252.425 3.20078 2.86294 0.070128 0.622164 0.396452 0.671431 
46 1 -248.978 257.668 8.99534 0.20936 0.836733 0.324436 0.388314 
47 1 -9.39138 241.038 6.24615 0.305941 0.778067 0.545497 0.0586967 
34 1 -251.783 492.086 6.55879 0.405613 0.891742 0.0660338 0.189507 
35 1 -0.73332 499.129 4.67889 0.0186342 0.786014 0.150696 0.599271 
36 1 249.325 499.16 4.7103 0.246468 0.195627 0.434306 0.844015 
52 1 256.56 499.956 253.974 0.313209 0.389638 0.554693 0.66513 
49 1 498.588 -493.674 246.14 0.365824 0.663171 0.258724 0.599532 
53 1 -491.243 -247.982 244.538 0.279954 0.572074 0.542707 0.547564 
54 1 -248.221 -252.59 244.134 0.183891 0.434788 0.485994 0.735495 
55 1 -0.270907 -249.982 247.831 0.464474 0.738409 0.480886 0.0881166 
50 1 -249.074 493.263 246.361 0.0646137 0.137076 0.360259 0.920461 
51 1 2.68174 495.722 250.168 0.712535 0.0219785 0.616005 0.335184 
10 1 -245.915 1.89258 492.463 0.625084 0.485796 0.550147 0.265725 
14 1 -253.077 249.161 495.041 0.656479 0.022668 0.284151 0.698412 
15 1 -4.29855 258.605 494.226 0.579053 0.270638 0.540738 0.546859 
16 1 254.126 248.386 498.013 0.647163 0.370363 0.518439 0.418608 
1 1 -491.158 496.673 493.967 0.66026 0.611694 -0.0604085 0.431552 
3 1 -7.15861 499.812 -500.046 0.286916 0.840732 0.458809 0.0185228 
ITEM: TIMESTEP
30000
ITEM: NUMBER OF ATOMS
55
ITEM: BOX BOUNDS pp pp pp
-5.0000000000000000e+02 5.0000000000000000e+02
-5.0000000000000000e+02 5.0000000000000000e+02
-5.0000000000000000e+02 5.0000000000000000e+02
ITEM: ATOMS id type x y z c_q[1] c_q[2] c_q[3] c_q[4] 
2 1 -239.143 -493.908 -486.7 0.617541 0.376607 0.102245 0.682902 
5 1 -488.204 -258.567 -492.327 0.488207 0.353038 0.389949 0.696389 
6 1 -246.93 -251.074 -490.872 0.315432 0.330938 0.679879 0.573364 
7 1 2.31998 -247.388 -492.105 0.726526 0.535175 0.132007 0.41027 
11 1 -3.44926 -2.07434 -499.49 0.0769832 0.64107 0.331396 0.687953 
12 1 248.974 -4.0206 -493.182 0.362278 0.334499 0.546721 0.676728 
9 1 487.232 -1.97947 -498.477 0.847601 0.436584 0.295949 0.0581503 
13 1 490.423 257.644 -488.854 0.241487 0.884507 0.30081 0.262381 
4 1 239.07 493.775 -499.54 -0.0131633 0.819049 0.315324 0.47912 
18 1 -257.102 -493.964 -239.278 0.792038 0.456338 0.396968 0.0827483 
17 1 -500.047 -485.354 -258.858 -0.120293 0.636958 0.758316 0.0690706 
22 1 -249.96 -248.17 -247.387 0.398508 0.703278 0.155828 0.567723 
23 1 1.81868 -249.805 -256.118 0.58673 0.4064 0.49555 0.494992 
24 1 242.864 -244.52 -242.758 0.339174 0.138181 0.408145 0.836233 
21 1 497.954 -253.42 -258.888 0.206234 0.167639 0.931127 0.249734 
26 1 -253.643 -7.44768 -251.358 0.51106 0.589675 0.510355 0.361441 
27 1 6.97914 -0.0515689 -252.518 0.117401 0.62637 0.465859 0.613883 
28 1 241.482 0.219802 -244.115 0.105688 0.041084 0.445909 0.887866 
25 1 -492.059 0.924414 -246.323 0.304757 0.66725 0.305101 0.6073 
29 1 -486.348 261.709 -244.258 0.34172 0.84496 0.411185 0.0140294 
30 1 -242.725 248.703 -244.946 0.261836 0.185055 0.548249 0.772411 
31 1 8.21735 244.178 -254.641 0.206662 0.641862 0.465112 0.573564 
32 1 243.137 248.107 -259.083 0.499651 0.384486 0.770946 0.0903487 
19 1 -8.67435 -498.43 -256.085 0.838695 0.282337 0.413597 0.214042 
20 1 253.247 496.439 -254.037 0.705132 0.352194 0.600466 0.134867 
38 1 -251.882 -255.052 -6.51573 0.492344 0.554766 0.470855 0.477626 
39 1 -1.85784 -254.838 -9.0344 0.190405 0.60389 0.325329 0.702299 
40 1 257.114 -261.041 -2.32318 0.0553378 0.712785 0.0948313 0.692735 
37 1 498.662 -252.054 -2.45837 0.230775 0.704673 0.663167 -0.10192 
43 1 -2.57362 0.420819 -0.28166 0.536583 0.325236 0.384832 0.676908 
41 1 492.925 4.27849 -1.59123 0.635649 0.480467 0.439168 0.415009 
45 1 -495.591 250.8 -14.9066 0.891524 0.409595 0.148571 0.123865 
48 1 248.027 246.313 -10.8669 0.300885 0.255134 0.907065 0.146993 
33 1 -491.881 -494.324 0.540059 0.600629 0.39088 0.697462 0.00214245 
44 1 247.329 -1.93173 3.42155 -0.00217964 0.670603 0.103253 0.734593 
42 1 -251.1 4.3523 7.16033 0.0327964 0.648295 0.434192 0.624592 
46 1 -247.021 254.667 7.58842 0.256076 0.82853 0.288638 0.405771 
47 1 -8.68554 242.416 9.73159 0.274912 0.76889 0.574896 0.0522111 
34 1 -252.744 490.708 8.58581 0.430686 0.893243 0.0432297 0.121479 
35 1 -0.878902 499.697 9.88809 -0.0185215 0.777784 0.150808 0.60989 
36 1 250.848 496.798 2.99206 0.296699 0.195228 0.43124 0.82939 
52 1 253.05 499.428 253.37 0.287141 0.368301 0.58262 0.665176 
49 1 497.582 -495.283 247.472 0.374792 0.659342 0.271689 0.59244 
53 1 -490.018 -250.995 247.392 0.307616 0.591651 0.486074 0.564849 
54 1 -248.324 -253.454 239.827 0.199825 0.451278 0.462168 0.736762 
55 1 3.15492 -247.705 245.993 0.419518 0.781409 0.457214 0.0660258 
50 1 -239.932 492.272 245.963 0.089283 0.114088 0.385542 0.911246 
51 1 5.14884 488.414 255.233 0.738971 0.0433374 0.600696 0.302005 
8 1 254.056 -254.324 -499.481 0.0634371 0.158397 0.567088 0.80579 
10 1 -244.988 -1.8373 490.681 0.61294 0.498468 0.536113 0.297351 
14 1 -255.432 248.02 497.19 0.629631 0.0398471 0.30402 0.713827 
15 1 -4.85094 256.742 493.844 0.555122 0.259174 0.542591 0.574686 
16 1 254.105 243.968 496.049 0.679092 0.327961 0.492906 0.433959 
1 1 -494.614 497.082 -499.944 0.633776 0.612649 -0.0292217 0.471312 
3 1 -12.6681 499.106 498.646 0.313414 0.80831 0.497918 0.0220187 
ITEM: TIMESTEP
40000
ITEM: NUMBER OF ATOMS
55
ITEM: BOX BOUNDS pp pp pp
-5.0000000000000000e+02 5.0000000000000000e+02
-5.0000000000000000e+02 5.0000000000000000e+02
-5.0000000000000000e+02 5.0000000000000000e+02
ITEM: ATOMS id type x y z c_q[1] c_q[2] c_q[3] c_q[4] 
1 1 -490.268 -498.217 -498.972 0.632102 0.586304 -0.0683775 0.502016 
2 1 -237.191 -495.945 -490.069 0.643854 0.359444 0.0542712 0.67328 
5 1 -485.434 -257.232 -492.036 0.515437 0.377024 0.353954 0.683296 
6 1 -249.178 -245.487 -494.468 0.329119 0.331142 0.681655 0.563358 
7 1 1.05235 -252.014 -490.625 0.706024 0.554922 0.147509 0.414526 
12 1 253.55 -10.35 -492.075 0.424121 0.31923 0.505699 0.680061 
13 1 487.88 253.774 -487.064 0.185275 0.91181 0.236532 0.279873 
18 1 -261.392 -494.943 -236.626 0.773789 0.487432 0.387605 0.115858 
19 1 -7.72362 -493.775 -253.052 0.826945 0.326995 0.414538 0.193377 
17 1 496.656 -482.765 -256.978 -0.15162 0.62178 0.766471 0.054065 
22 1 -243.681 -244.622 -249.645 0.389969 0.73725 0.142763 0.532921 
23 1 -1.39597 -250.896 -255.78 0.577429 0.385842 0.521864 0.495338 
24 1 242.078 -244.67 -243.019 0.315078 0.148609 0.383309 0.855404 
21 1 495.758 -259.226 -260.327 0.24647 0.17115 0.920731 0.249429 
26 1 -253.022 -6.13075 -250.741 0.526448 0.576196 0.512412 0.358169 
27 1 6.40968 -1.24039 -255.473 0.172493 0.603987 0.45915 0.628194 
28 1 242.839 -1.70425 -250.806 0.0196943 0.0457582 0.421741 0.905347 
25 1 -491.923 3.69485 -246.838 0.312775 0.682859 0.310133 0.582831 
29 1 -488.027 255.343 -244.26 0.31695 0.820894 0.474885 -0.012637 
30 1 -238.72 251.461 -248.012 0.251291 0.153712 0.553775 0.778819 
31 1 8.00293 243.828 -254.151 0.162217 0.634369 0.459253 0.60029 
32 1 247.383 255.814 -253.022 0.453902 0.393517 0.794339 0.0902426 
20 1 255.631 498.668 -249.139 0.675365 0.334011 0.645273 0.126262 
33 1 -490.523 -488.998 0.75047 0.635097 0.409775 0.653941 -0.0331213 
38 1 -257.238 -252.093 -8.76891 0.511476 0.57363 0.476312 0.427163 
39 1 -0.41006 -249.259 -5.6604 0.211952 0.616712 0.363237 0.665433 
40 1 253.334 -261.39 -3.16252 0.0371293 0.682679 0.0759695 0.72581 
43 1 2.69118 1.19104 -2.64739 0.564066 0.354534 0.389833 0.63574 
41 1 489.051 3.17569 -2.09881 0.629475 0.476854 0.431513 0.436082 
45 1 -498.393 254.222 -15.617 0.900558 0.376446 0.136538 0.169235 
48 1 248.022 248.444 -10.4982 0.238985 0.233219 0.935021 0.119292 
36 1 250.74 490.985 -0.0316964 0.233755 0.204372 0.47046 0.825989 
35 1 -3.86446 -500.003 8.35988 -0.0179392 0.789745 0.172933 0.588282 
37 1 -499.29 -256.947 2.0181 0.229089 0.711662 0.660955 -0.064765 
42 1 -256.517 5.93451 8.16076 0.0859793 0.619797 0.431368 0.649908 
44 1 243.469 -0.872124 11.6093 -0.0254923 0.658658 0.147322 0.737439 
46 1 -247.128 257.259 10.9497 0.301518 0.815564 0.282077 0.405431 
47 1 -9.37948 250.479 13.5885 0.290314 0.771705 0.563427 0.0523265 
34 1 -252.29 492.281 10.8099 0.419929 0.896556 0.052563 0.130702 
52 1 248.816 -498.216 253.485 0.304126 0.379042 0.555397 0.674811 
49 1 493.294 -496.098 250.82 0.384553 0.663121 0.269401 0.582934 
53 1 -485.507 -252.834 252.189 0.279081 0.629139 0.463031 0.55848 
54 1 -250.567 -253.105 242.612 0.199027 0.450493 0.471684 0.731409 
55 1 0.453431 -252.358 243.282 0.408733 0.794903 0.447745 0.0242939 
50 1 -239.351 491.88 246.289 0.134788 0.100082 0.34691 0.922751 
51 1 4.71208 487.551 249.537 0.751203 0.0237071 0.6048 0.263341 
8 1 256.041 -254.923 496.702 0.00292118 0.138334 0.614292 0.776853 
9 1 492.173 -6.8205 498.989 0.856538 0.432739 0.274425 0.0614115 
10 1 -237.923 0.763681 492.336 0.583386 0.49423 0.568779 0.303131 
11 1 -3.97398 0.392806 -500.192 0.070586 0.654939 0.314942 0.68329 
14 1 -254.653 249.606 496.688 0.599322 0.0149572 0.272769 0.752454 
15 1 -7.70219 255.094 490.901 0.579974 0.240748 0.531443 0.568541 
16 1 250.86 243.813 496.061 0.681443 0.309373 0.499343 0.436555 
3 1 -18.478 498.325 497.578 0.321998 0.83326 0.447566 0.0409784 
4 1 240.316 496.739 498.764 -0.0238667 0.818618 0.291242 0.494442 
ITEM: TIMESTEP
50000
ITEM: NUMBER OF ATOMS
55
ITEM: BOX BOUNDS pp pp pp
-5.0000000000000000e+02 5.0000000000000000e+02
-5.0000000000000000e+02 5.0000000000000000e+02
-5.0000000000000000e+02 5.0000000000000000e+02
ITEM: ATOMS id type x y z c_q[1] c_q[2] c_q[3] c_q[4] 
1 1 -485.792 -499.64 -496.928 0.645301 0.608564 -0.071793 0.456161 
2 1 -240.86 -489.005 -491.826 0.642714 0.350534 0.109491 0.672351 
5 1 -486.793 -259.765 -489.242 0.516882 0.416483 0.315651 0.678041 
6 1 -249.692 -245.741 -492.196 0.355003 0.320862 0.664786 0.573655 
7 1 2.10604 -250.726 -489.759 0.69886 0.571458 0.172127 0.394212 
11 1 -1.52933 -2.06652 -498.571 0.0733232 0.663035 0.302051 0.681009 
12 1 253.577 -11.5893 -493.313 0.378026 0.308769 0.570696 0.660352 
13 1 488.946 250.642 -486.214 0.18572 0.934139 0.165083 0.256203 
18 1 -259.336 -497.006 -239.206 0.764821 0.483905 0.409361 0.115359 
19 1 -5.53728 -493.144 -251.85 0.821176 0.333839 0.400268 0.232393 
17 1 491.779 -480.227 -261.114 -0.172725 0.575456 0.798731 0.0323265 
22 1 -243.389 -240.315 -250.158 0.389408 0.729149 0.120521 0.549707 
23 1 4.96746 -256.151 -256.102 0.586785 0.386516 0.52704 0.478035 
24 1 241.033 -245.658 -243.607 0.331883 0.126306 0.347647 0.86778 
21 1 494.358 -260.379 -256.504 0.276356 0.213224 0.909248 0.226783 
26 1 -260.514 -6.57441 -247.394 0.525594 0.564555 0.499351 0.394561 
27 1 7.46674 -6.03423 -254.424 0.138411 0.58636 0.462401 0.650546 
28 1 241.03 -2.15616 -252.609 0.0347298 0.060952 0.428983 0.900585 
25 1 -492.144 5.48912 -242.881 0.293907 0.705342 0.259944 0.590373 
29 1 -488.753 259.532 -246.094 0.296612 0.823263 0.48371 0.0168719 
30 1 -242.559 258.004 -249.695 0.29564 0.209778 0.539175 0.760184 
31 1 6.95377 244.817 -254.518 0.152794 0.614228 0.446428 0.632518 
32 1 246.785 257.593 -253.402 0.41569 0.399357 0.810548 0.103576 
20 1 252.655 495.835 -249.57 0.684172 0.310049 0.650683 0.111306 
33 1 -488.823 -485.567 -2.52386 0.593659 0.404204 0.693863 -0.052372 
38 1 -258.341 -254.167 -10.1614 0.534265 0.585033 0.462483 0.398003 
39 1 0.68344 -248.525 -15.2994 0.221638 0.600713 0.395856 0.658269 
40 1 251.999 -259.241 -7.4998 0.0694365 0.675626 0.0376461 0.733001 
41 1 485.25 -0.529902 -5.74202 0.587078 0.472822 0.458234 0.470957 
43 1 7.90988 2.37948 -1.54163 0.520686 0.311459 0.437978 0.663366 
45 1 -497.639 252.115 -14.2868 0.914226 0.366464 0.142776 0.0975195 
48 1 245.939 243.929 -15.5451 0.235244 0.218096 0.939747 0.118191 
36 1 245.367 487.667 -5.40004 0.278379 0.213608 0.45152 0.82037 
37 1 -497.304 -254.642 4.30145 0.231079 0.717722 0.651887 -0.0807509 
42 1 -259.699 4.66973 8.48143 0.139699 0.587927 0.454479 0.654427 
44 1 240.03 0.456369 11.7605 -0.108066 0.67071 0.206309 0.704206 
46 1 -248.137 256.246 9.82601 0.324381 0.815235 0.252359 0.408024 
47 1 -4.97376 252.838 12.6142 0.266599 0.789714 0.545197 0.0896521 
34 1 -252.544 495.404 7.10116 0.42088 0.898868 0.0731562 0.0976985 
35 1 -7.44216 -499.651 7.57993 -0.00027718 0.801779 0.17787 0.570537 
52 1 248.408 -497.329 251.953 0.235505 0.43389 0.554973 0.669539 
49 1 496.669 -491.172 252.237 0.358061 0.674709 0.309498 0.566367 
53 1 -483.58 -253.727 249.696 0.312214 0.65627 0.434729 0.53183 
54 1 -250.348 -255.244 243.272 0.205156 0.43924 0.470951 0.737011 
55 1 6.24073 -255.397 245.821 0.396925 0.81425 0.423566 0.0063299 
50 1 -242.866 494.685 248.807 0.106772 0.0932593 0.375337 0.915983 
51 1 1.92429 486.18 245.296 0.758451 0.0220445 0.563923 0.32597 
4 1 239.603 -499.569 498.252 -0.0711746 0.83074 0.326146 0.445459 
8 1 256.405 -257.851 493.702 0.0101085 0.0859912 0.660647 0.745686 
9 1 493.081 -2.17364 495.71 0.872066 0.400543 0.275835 0.054597 
10 1 -234.631 4.07452 494.855 0.581968 0.483688 0.569685 0.320653 
14 1 -252.089 245.884 493.675 0.573858 -0.0332213 0.241871 0.781717 
15 1 -9.24376 251.107 493.369 0.556896 0.217642 0.52568 0.60511 
16 1 246.308 241.198 496.304 0.701197 0.363916 0.478298 0.383561 
3 1 -16.5917 496.412 496.181 0.32414 0.843582 0.421972 0.0724013 
ITEM: TIMESTEP
60000
ITEM: NUMBER OF ATOMS
55
ITEM: BOX BOUNDS pp pp pp
-5.0000000000000000e+02 5.0000000000000000e+02
-5.0000000000000000e+02 5.0000000000000000e+02
-5.0000000000000000e+02 5.0000000000000000e+02
ITEM: ATOMS id type x y z c_q[1] c_q[2] c_q[3] c_q[4] 
1 1 -482.334 -499.133 -496.72 0.647047 0.604438 -0.0716014 0.459192 
2 1 -240.31 -487.55 -492.231 0.569138 0.423904 0.152848 0.687768 
5 1 -487.207 -260.559 -492.242 0.501089 0.413883 0.327394 0.685875 
6 1 -250.623 -244.349 -499.62 0.352173 0.3156 0.702444 0.531924 
7 1 2.06001 -245.183 -487.165 0.709565 0.562828 0.177552 0.38499 
11 1 1.44495 -3.00151 -499.326 0.0972631 0.640734 0.303877 0.698325 
12 1 251.695 -8.72709 -490.285 0.38732 0.322711 0.612397 0.608942 
9 1 487.366 1.46274 -498.635 0.896346 0.397839 0.189202 0.0498947 
13 1 488.011 253.713 -486.094 0.174059 0.925166 0.19894 0.272388 
18 1 -260.326 -495.266 -237.886 0.769595 0.501646 0.385234 0.0875774 
19 1 -4.8014 -494.872 -251.065 0.815989 0.355356 0.376404 0.2573 
20 1 254.164 -499.22 -245.436 0.709896 0.300731 0.618961 0.149986 
17 1 497.669 -479.728 -256.785 -0.143982 0.575817 0.804402 0.0253203 
22 1 -243.596 -235.704 -247.709 0.335337 0.76793 0.0774966 0.54021 
23 1 0.801963 -254.788 -255.95 0.623088 0.355563 0.509441 0.475192 
24 1 239.411 -245.6 -243.926 0.339383 0.116172 0.318959 0.877262 
21 1 497.188 -261.532 -253.361 0.244865 0.208588 0.92721 0.191871 
26 1 -258.37 -7.55316 -245.81 0.516685 0.608211 0.457797 0.391839 
27 1 3.33465 -0.741008 -256.72 0.0838919 0.552989 0.487995 0.670094 
28 1 239.678 -6.20598 -255.67 0.0564501 0.0439158 0.465749 0.882022 
25 1 -494.996 4.69098 -240.304 0.252996 0.704406 0.290792 0.596025 
29 1 -488.129 252.979 -246.95 0.269606 0.819403 0.503218 0.0515995 
30 1 -239.919 263.503 -248.848 0.345978 0.246117 0.525667 0.737157 
31 1 2.21457 245.369 -248.972 0.149499 0.644683 0.427165 0.616087 
32 1 243.17 255.815 -249.816 0.419025 0.383481 0.813311 0.126038 
33 1 -489.408 -481.36 -5.39823 0.596026 0.408048 0.689226 -0.0567237 
38 1 -259.187 -252.105 -4.44993 0.567372 0.562487 0.477109 0.366148 
39 1 -0.347504 -249.11 -18.1828 0.225098 0.609343 0.41588 0.636456 
40 1 247.635 -255.93 -8.34237 0.0815687 0.660074 0.00225799 0.746756 
43 1 8.08195 3.21879 -3.30846 0.549178 0.218281 0.449206 0.670053 
41 1 487.59 3.36591 -8.47081 0.591264 0.471639 0.456551 0.468535 
45 1 -499.409 239.79 -14.1849 0.892633 0.386021 0.175559 0.152885 
48 1 245.145 249.09 -13.3142 0.222396 0.200765 0.944921 0.131747 
36 1 241.578 487.659 -3.01024 0.248779 0.27156 0.443412 0.81716 
37 1 -499.275 -249.949 6.1039 0.203359 0.709106 0.665076 -0.116132 
42 1 -259.44 7.18327 5.26526 0.153915 0.595724 0.454481 0.644104 
44 1 238.106 0.435871 13.4752 -0.114608 0.676294 0.222437 0.69283 
46 1 -248.294 256.311 11.9973 0.365436 0.788004 0.227359 0.440243 
47 1 -7.33778 262.033 14.4841 0.222841 0.829474 0.50553 0.0821783 
34 1 -253.503 497.861 8.01332 0.407848 0.900557 0.0445634 0.143773 
35 1 -6.49854 499.162 15.2422 -0.0209178 0.817683 0.154441 0.55417 
52 1 245.736 -496.216 252.779 0.283692 0.412957 0.551691 0.6668 
49 1 498.904 -495.176 252.17 0.360148 0.674805 0.307314 0.566118 
53 1 -482.647 -250.095 245.397 0.313941 0.681824 0.393724 0.530602 
54 1 -246.741 -255.67 249.297 0.207577 0.479228 0.481789 0.703656 
55 1 3.39631 -256.153 248.161 0.365612 0.837058 0.406791 0.0135075 
50 1 -248.364 494.394 250.488 0.0718204 0.148097 0.374265 0.912598 
51 1 4.94599 485.889 245.596 0.751304 0.0662533 0.548644 0.360753 
3 1 -18.8141 -498.571 495.813 0.306427 0.869691 0.379423 0.0760119 
8 1 259.121 -258.673 495.397 0.045204 0.0981828 0.635155 0.764784 
10 1 -238.959 5.78399 496.051 0.568168 0.472374 0.592565 0.320804 
14 1 -253.374 248.928 495.845 0.535696 -0.0322378 0.188685 0.822428 
15 1 -5.126 250.775 498.066 0.595097 0.191914 0.486757 0.609997 
16 1 248.851 243.112 490.49 0.720937 0.368621 0.442011 0.385998 
4 1 244.195 496.776 498.411 -0.0699444 0.814685 0.324999 0.475154 
ITEM: TIMESTEP
70000
ITEM: NUMBER OF ATOMS
55
ITEM: BOX BOUNDS pp pp pp
-5.0000000000000000e+02 5.0000000000000000e+02
-5.0000000000000000e+02 5.0000000000000000e+02
-5.0000000000000000e+02 5.0000000000000000e+02
ITEM: ATOMS id type x y z c_q[1] c_q[2] c_q[3] c_q[4] 
1 1 -486.175 -499.411 -497.712 0.616133 0.623453 -0.0641015 0.47705 
2 1 -242.89 -487.73 -495.929 0.547113 0.426433 0.176163 0.698419 
5 1 -487.147 -263.676 -494.577 0.510401 0.393427 0.346344 0.681727 
6 1 -252.057 -249.111 499.799 0.361649 0.277822 0.725248 0.515791 
7 1 -2.49348 -241.431 -490.431 0.720634 0.568406 0.22475 0.327246 
11 1 4.67658 -1.66912 -497.303 0.0762323 0.672457 0.289212 0.677013 
12 1 248.728 -8.2193 -489.752 0.393905 0.324073 0.631905 0.583534 
9 1 486.686 0.554258 -493.201 0.903113 0.386196 0.160581 0.0972326 
13 1 493.868 258.728 -489.373 0.174595 0.897812 0.236315 0.328032 
4 1 246.349 496.351 -496.713 -0.0932757 0.813085 0.334017 0.467575 
18 1 -260.201 -493.83 -242.126 0.720946 0.514111 0.45644 0.0871138 
19 1 -3.91568 -498.497 -247.565 0.800257 0.355049 0.394034 0.279761 
20 1 255.066 -493.208 -242.295 0.657589 0.270924 0.686246 0.152458 
17 1 493.201 -478.832 -257.276 -0.137704 0.579039 0.803074 -0.0287074 
22 1 -238.087 -234.715 -244.999 0.298997 0.784671 0.0676357 0.538812 
23 1 3.8165 -257.716 -252.577 0.605182 0.372233 0.501796 0.493355 
24 1 240.515 -245.898 -244.138 0.330491 0.0896134 0.305582 0.888462 
21 1 499.047 -263.21 -255.36 0.18635 0.225121 0.929538 0.224841 
26 1 -255.025 -7.99556 -242.895 0.52249 0.603221 0.448654 0.402291 
28 1 236.801 -2.08069 -256.671 0.0128315 0.082497 0.436192 0.895972 
27 1 3.80896 3.20546 -258.72 0.0906191 0.519695 0.497029 0.688962 
25 1 498.77 5.14675 -238.823 0.227895 0.716191 0.323113 0.575094 
29 1 -485.172 257.456 -239.379 0.239354 0.843899 0.473301 0.0808038 
30 1 -239.896 258.543 -243.855 0.353276 0.191967 0.505437 0.763464 
31 1 4.75001 244.032 -248.86 0.180435 0.634594 0.455347 0.597824 
32 1 245.124 256.361 -251.127 0.424946 0.408206 0.800233 0.111424 
33 1 -488.532 -487.417 -3.01455 0.60594 0.369126 0.6987 -0.0916589 
38 1 -255.209 -254.967 -4.2914 0.575811 0.566879 0.453254 0.376365 
39 1 0.435739 -249.063 -18.9162 0.238318 0.61736 0.419333 0.621475 
40 1 244.951 -259.173 -3.72357 0.068216 0.649198 -0.0022189 0.757551 
41 1 490.242 5.3544 -7.07469 0.578388 0.494787 0.475661 0.440908 
48 1 250.072 254.036 -12.8768 0.198612 0.167718 0.955353 0.140443 
45 1 495.849 242.642 -10.5322 0.874699 0.385125 0.173099 0.237943 
36 1 241.257 489.128 -0.651696 0.269647 0.265524 0.450131 0.808808 
34 1 -253.566 -495.457 12.303 0.406476 0.908912 0.0486523 0.0793054 
37 1 499.192 -250.303 5.10215 0.209553 0.72086 0.649692 -0.119784 
44 1 237.635 -5.87821 8.42255 -0.150858 0.671717 0.217037 0.692049 
42 1 -258.708 4.42617 6.90601 0.138101 0.592721 0.456548 0.648979 
43 1 8.29476 1.96133 0.436626 0.552581 0.220324 0.457682 0.660787 