LAMMPS data file

5 atoms
5 ellipsoids
0 bonds
0 angles
0 dihedrals

1 atom types
0 bond types
0 angle types
0 dihedral types

-500.000000 500.000000 xlo xhi
-500.000000 500.000000 ylo yhi
-500.000000 500.000000 zlo zhi

Masses

1 203166.000000

Atoms

1 1 -500.000000 -500.000000 -500.000000 1 1.000000 3 0.000000
2 1 0.000000 -500.000000 -500.000000 1 1.000000 4 0.000000
3 1 -500.000000 0.000000 -500.000000 1 1.000000 5 0.000000
4 1 0.000000 0.000000 -500.000000 1 1.000000 6 0.000000
5 1 -500.000000 -500.000000 0.000000 1 1.000000 7 0.000000

Ellipsoids

1 55.000000 110.000000 110.000000 0.536413 0.044982 0.748549 0.387185
2 55.000000 110.000000 110.000000 0.601485 0.644343 0.396990 0.255806
3 55.000000 110.000000 110.000000 0.590277 0.756595 0.247672 0.133405
4 55.000000 110.000000 110.000000 0.580179 0.372735 0.558200 0.461383
5 55.000000 110.000000 110.000000 0.608677 0.513200 0.448098 0.406628




