ITEM: TIMESTEP
0
ITEM: NUMBER OF ATOMS
5
ITEM: BOX BOUNDS pp pp pp
-5.0000000000000000e+02 5.0000000000000000e+02
-5.0000000000000000e+02 5.0000000000000000e+02
-5.0000000000000000e+02 5.0000000000000000e+02
ITEM: ATOMS id type x y z c_q[1] c_q[2] c_q[3] c_q[4] 
1 1 -500 -500 -500 0.536413 0.044982 0.748549 0.387185 
2 1 0 -500 -500 0.601485 0.644343 0.39699 0.255806 
3 1 -500 0 -500 0.590277 0.756595 0.247672 0.133405 
4 1 0 0 -500 0.580179 0.372735 0.5582 0.461383 
5 1 -500 -500 0 0.608677 0.5132 0.448098 0.406628 
ITEM: TIMESTEP
10000
ITEM: NUMBER OF ATOMS
5
ITEM: BOX BOUNDS pp pp pp
-5.0000000000000000e+02 5.0000000000000000e+02
-5.0000000000000000e+02 5.0000000000000000e+02
-5.0000000000000000e+02 5.0000000000000000e+02
ITEM: ATOMS id type x y z c_q[1] c_q[2] c_q[3] c_q[4] 
4 1 2.81414 4.36961 -497.93 0.579071 0.426325 0.526692 0.453342 
5 1 -499.204 -496.69 2.50097 0.630354 0.500785 0.436861 0.401274 
3 1 -498.753 -0.814656 498.903 0.588827 0.763117 0.249016 0.0944755 
2 1 -0.863768 497.737 499.587 0.627328 0.652322 0.336855 0.25974 
1 1 497.361 -499.826 495.086 0.472005 0.0296739 0.798674 0.37209 
ITEM: TIMESTEP
20000
ITEM: NUMBER OF ATOMS
5
ITEM: BOX BOUNDS pp pp pp
-5.0000000000000000e+02 5.0000000000000000e+02
-5.0000000000000000e+02 5.0000000000000000e+02
-5.0000000000000000e+02 5.0000000000000000e+02
ITEM: ATOMS id type x y z c_q[1] c_q[2] c_q[3] c_q[4] 
3 1 496.73 -2.62804 -498.426 0.60562 0.745351 0.271139 0.0645054 
2 1 -1.59969 495.858 -498.905 0.5994 0.650453 0.36255 0.293577 
5 1 -494.438 -495.346 4.17481 0.650669 0.475884 0.42303 0.413775 
1 1 499.826 -499.248 491.472 0.503876 0.0399627 0.804063 0.313041 
4 1 4.46493 4.60782 498.563 0.626376 0.380762 0.514309 0.445151 
ITEM: TIMESTEP
30000
ITEM: NUMBER OF ATOMS
5
ITEM: BOX BOUNDS pp pp pp
-5.0000000000000000e+02 5.0000000000000000e+02
-5.0000000000000000e+02 5.0000000000000000e+02
-5.0000000000000000e+02 5.0000000000000000e+02
ITEM: ATOMS id type x y z c_q[1] c_q[2] c_q[3] c_q[4] 
3 1 489.717 -1.57644 -487.44 0.596018 0.755548 0.259441 0.0812433 
2 1 5.21642 497.483 -498.629 0.609672 0.637151 0.363221 0.300682 
5 1 -498.902 -495.126 7.42609 0.640765 0.493752 0.413736 0.417674 
1 1 496.169 -495.311 489.811 0.482873 0.0430178 0.814523 0.318646 
4 1 3.89099 3.74547 494.814 0.633369 0.390719 0.517142 0.422784 
ITEM: TIMESTEP
40000
ITEM: NUMBER OF ATOMS
5
ITEM: BOX BOUNDS pp pp pp
-5.0000000000000000e+02 5.0000000000000000e+02
-5.0000000000000000e+02 5.0000000000000000e+02
-5.0000000000000000e+02 5.0000000000000000e+02
ITEM: ATOMS id type x y z c_q[1] c_q[2] c_q[3] c_q[4] 
2 1 4.8471 -498.682 -497.274 0.610734 0.659755 0.325657 0.292702 
3 1 486.991 0.661433 -485.181 0.613904 0.749003 0.23769 0.0749709 
5 1 -500.192 -494.188 6.43345 0.631935 0.469161 0.443433 0.428851 
1 1 493.039 -493.646 486.792 0.500525 0.0439409 0.805568 0.314013 
4 1 2.22085 4.51 495.17 0.626123 0.375868 0.516604 0.447005 
ITEM: TIMESTEP
50000
ITEM: NUMBER OF ATOMS
5
ITEM: BOX BOUNDS pp pp pp
-5.0000000000000000e+02 5.0000000000000000e+02
-5.0000000000000000e+02 5.0000000000000000e+02
-5.0000000000000000e+02 5.0000000000000000e+02
ITEM: ATOMS id type x y z c_q[1] c_q[2] c_q[3] c_q[4] 
3 1 486.217 2.6735 -478.519 0.590974 0.76588 0.24032 0.0801508 
5 1 -499.395 -495.478 4.30095 0.618461 0.500792 0.410655 0.445057 
2 1 2.40154 -495.463 498.794 0.591418 0.690526 0.298041 0.290809 
1 1 495.117 -499.619 483.091 0.463693 -0.0114629 0.83253 0.302903 
4 1 -4.09156 4.20878 494.55 0.624675 0.389267 0.517933 0.435888 
ITEM: TIMESTEP
60000
ITEM: NUMBER OF ATOMS
5
ITEM: BOX BOUNDS pp pp pp
-5.0000000000000000e+02 5.0000000000000000e+02
-5.0000000000000000e+02 5.0000000000000000e+02
-5.0000000000000000e+02 5.0000000000000000e+02
ITEM: ATOMS id type x y z c_q[1] c_q[2] c_q[3] c_q[4] 
3 1 487.583 1.93998 -482.327 0.637253 0.732884 0.206802 0.118419 
5 1 -498.386 -495.701 12.9959 0.619253 0.537884 0.37789 0.429426 
2 1 0.843446 -495.406 498.54 0.561744 0.713261 0.319963 0.270789 
4 1 -4.88989 2.94307 498.891 0.616956 0.390157 0.487581 0.478965 
1 1 496.226 495.104 486.494 0.487683 0.0147645 0.825524 0.283649 
ITEM: TIMESTEP
70000
ITEM: NUMBER OF ATOMS
5
ITEM: BOX BOUNDS pp pp pp
-5.0000000000000000e+02 5.0000000000000000e+02
-5.0000000000000000e+02 5.0000000000000000e+02
-5.0000000000000000e+02 5.0000000000000000e+02
ITEM: ATOMS id type x y z c_q[1] c_q[2] c_q[3] c_q[4] 
3 1 491.554 6.13268 -478.748 0.626949 0.724734 0.255232 0.128654 
5 1 -494.363 -497.841 15.1523 0.614683 0.560491 0.371035 0.412733 
2 1 3.05258 -496.914 496.056 0.57499 0.680477 0.3155 0.326799 
4 1 -3.34858 5.23121 497.519 0.627557 0.408338 0.470031 0.467444 
1 1 494.396 497.055 486.708 0.487682 0.0115615 0.800877 0.347317 
ITEM: TIMESTEP
80000
ITEM: NUMBER OF ATOMS
5
ITEM: BOX BOUNDS pp pp pp
-5.0000000000000000e+02 5.0000000000000000e+02
-5.0000000000000000e+02 5.0000000000000000e+02
-5.0000000000000000e+02 5.0000000000000000e+02
ITEM: ATOMS id type x y z c_q[1] c_q[2] c_q[3] c_q[4] 
3 1 495.176 2.97393 -482.496 0.62002 0.71836 0.287793 0.129264 
5 1 -495.547 -497.442 14.4766 0.621201 0.552029 0.398508 0.388026 
2 1 9.12213 -496.425 496.709 0.555496 0.681918 0.329522 0.343259 
4 1 -7.50038 3.71734 496.351 0.635022 0.410532 0.471236 0.454034 
1 1 494.009 498.564 487.733 0.471616 0.0392469 0.803545 0.361044 
ITEM: TIMESTEP
90000
ITEM: NUMBER OF ATOMS
5
ITEM: BOX BOUNDS pp pp pp
-5.0000000000000000e+02 5.0000000000000000e+02
-5.0000000000000000e+02 5.0000000000000000e+02
-5.0000000000000000e+02 5.0000000000000000e+02
ITEM: ATOMS id type x y z c_q[1] c_q[2] c_q[3] c_q[4] 
3 1 492.966 3.86803 -486.654 0.616544 0.713956 0.287495 0.16579 
5 1 -497.686 -498.843 16.7303 0.574307 0.533322 0.453667 0.424177 
2 1 6.37452 -499.675 492.498 0.589146 0.681356 0.285302 0.327513 
1 1 498.796 -499.383 485.623 0.434206 0.00115231 0.820253 0.372356 
4 1 -12.6007 5.74676 497.854 0.648087 0.42177 0.451457 0.445286 
ITEM: TIMESTEP
100000
ITEM: NUMBER OF ATOMS
5
ITEM: BOX BOUNDS pp pp pp
-5.0000000000000000e+02 5.0000000000000000e+02
-5.0000000000000000e+02 5.0000000000000000e+02
-5.0000000000000000e+02 5.0000000000000000e+02
ITEM: ATOMS id type x y z c_q[1] c_q[2] c_q[3] c_q[4] 
4 1 -11.3301 -0.0346402 -498.752 0.635354 0.42954 0.485178 0.420027 
3 1 498.198 5.9727 -484.77 0.605319 0.721347 0.294502 0.162835 
5 1 492.147 498.59 23.5876 0.543816 0.57897 0.430083 0.429054 
2 1 9.88753 495.226 493.671 0.56495 0.68517 0.286404 0.359647 
1 1 499.549 499.857 484.903 0.47082 -0.0159696 0.793218 0.385848 
ITEM: TIMESTEP
110000
ITEM: NUMBER OF ATOMS
5
ITEM: BOX BOUNDS pp pp pp
-5.0000000000000000e+02 5.0000000000000000e+02
-5.0000000000000000e+02 5.0000000000000000e+02
-5.0000000000000000e+02 5.0000000000000000e+02
ITEM: ATOMS id type x y z c_q[1] c_q[2] c_q[3] c_q[4] 
3 1 493.359 0.928523 -485.964 0.607545 0.722799 0.281439 0.171004 
5 1 494.373 497.591 19.3121 0.581016 0.556316 0.417045 0.423092 
4 1 -15.001 5.77436 499.756 0.632794 0.424692 0.463919 0.451649 
2 1 10.046 494.147 496.302 0.572888 0.675339 0.333098 0.32367 
1 1 494.555 496.417 488.856 0.466829 -0.0223446 0.799777 0.376735 
ITEM: TIMESTEP
120000
ITEM: NUMBER OF ATOMS
5
ITEM: BOX BOUNDS pp pp pp
-5.0000000000000000e+02 5.0000000000000000e+02
-5.0000000000000000e+02 5.0000000000000000e+02
-5.0000000000000000e+02 5.0000000000000000e+02
ITEM: ATOMS id type x y z c_q[1] c_q[2] c_q[3] c_q[4] 
4 1 -17.0812 2.25309 -495.082 0.5917 0.447296 0.458857 0.489151 
3 1 492.261 1.77973 -488.279 0.58903 0.716746 0.325931 0.181901 
5 1 489.899 493.347 13.0745 0.588708 0.562168 0.437686 0.381865 
2 1 9.16265 492.669 498.317 0.561871 0.680548 0.313429 0.350595 
1 1 495.439 497.93 486.52 0.471624 -0.0439525 0.79105 0.387141 
ITEM: TIMESTEP
130000
ITEM: NUMBER OF ATOMS
5
ITEM: BOX BOUNDS pp pp pp
-5.0000000000000000e+02 5.0000000000000000e+02
-5.0000000000000000e+02 5.0000000000000000e+02
-5.0000000000000000e+02 5.0000000000000000e+02
ITEM: ATOMS id type x y z c_q[1] c_q[2] c_q[3] c_q[4] 
4 1 -22.2281 0.358837 -493.691 0.628202 0.422502 0.461673 0.46229 
3 1 490.124 -0.0799836 -491.012 0.583789 0.714885 0.345116 0.170366 
5 1 483.598 489.427 11.817 0.579611 0.588425 0.423964 0.371565 
1 1 493.37 -498.99 488.817 0.519214 -0.0860684 0.74853 0.403376 
2 1 7.14373 495.288 493.64 0.578526 0.687878 0.248471 0.361101 
ITEM: TIMESTEP
140000
ITEM: NUMBER OF ATOMS
5
ITEM: BOX BOUNDS pp pp pp
-5.0000000000000000e+02 5.0000000000000000e+02
-5.0000000000000000e+02 5.0000000000000000e+02
-5.0000000000000000e+02 5.0000000000000000e+02
ITEM: ATOMS id type x y z c_q[1] c_q[2] c_q[3] c_q[4] 
4 1 -28.6172 5.97341 -490.231 0.603462 0.435606 0.46713 0.477358 
3 1 491.438 6.54899 -488.258 0.571004 0.727007 0.306854 0.226399 
5 1 489.851 487.658 14.6049 0.596427 0.590718 0.443839 0.313584 
1 1 489.996 -497.598 484.912 0.484212 -0.0405714 0.743006 0.460255 
2 1 7.83733 495.914 491.212 0.544798 0.713558 0.247026 0.364704 
ITEM: TIMESTEP
150000
ITEM: NUMBER OF ATOMS
5
ITEM: BOX BOUNDS pp pp pp
-5.0000000000000000e+02 5.0000000000000000e+02
-5.0000000000000000e+02 5.0000000000000000e+02
-5.0000000000000000e+02 5.0000000000000000e+02
ITEM: ATOMS id type x y z c_q[1] c_q[2] c_q[3] c_q[4] 
4 1 -32.732 4.8492 -489.445 0.604859 0.408618 0.485623 0.480986 
3 1 491.22 7.85877 -484.213 0.58275 0.722079 0.314163 0.200762 
5 1 495.315 485.568 15.0241 0.617426 0.577175 0.456577 0.277834 
2 1 9.09986 495.594 486.173 0.516454 0.721396 0.25681 0.38329 
1 1 487.605 498.465 486.018 0.445085 -0.0609956 0.770612 0.452035 
ITEM: TIMESTEP
160000
ITEM: NUMBER OF ATOMS
5
ITEM: BOX BOUNDS pp pp pp
-5.0000000000000000e+02 5.0000000000000000e+02
-5.0000000000000000e+02 5.0000000000000000e+02
-5.0000000000000000e+02 5.0000000000000000e+02
ITEM: ATOMS id type x y z c_q[1] c_q[2] c_q[3] c_q[4] 
4 1 -28.0357 1.25557 -487.896 0.601876 0.361229 0.476575 0.529278 
3 1 488.402 10.2891 -483.794 0.562813 0.748408 0.304196 0.174904 
5 1 495.367 485.32 17.2506 0.643246 0.554538 0.468743 0.242904 
1 1 487.294 -499.399 488.979 0.432055 -0.0840187 0.783987 0.43776 
2 1 9.22602 493.413 490.281 0.506048 0.725429 0.281786 0.37184 
ITEM: TIMESTEP
170000
ITEM: NUMBER OF ATOMS
5
ITEM: BOX BOUNDS pp pp pp
-5.0000000000000000e+02 5.0000000000000000e+02
-5.0000000000000000e+02 5.0000000000000000e+02
-5.0000000000000000e+02 5.0000000000000000e+02
ITEM: ATOMS id type x y z c_q[1] c_q[2] c_q[3] c_q[4] 
4 1 -28.1783 2.46735 -487.553 0.599706 0.323618 0.427237 0.594216 
3 1 488.065 13.6181 -484.033 0.549685 0.723286 0.340039 0.243059 
5 1 495.567 485.145 16.5182 0.670968 0.519387 0.473129 0.237041 
1 1 490.866 -494.637 488.869 0.44696 -0.0785581 0.776242 0.437611 
2 1 12.7311 489.494 489.946 0.511225 0.726665 0.297594 0.349348 
ITEM: TIMESTEP
180000
ITEM: NUMBER OF ATOMS
5
ITEM: BOX BOUNDS pp pp pp
-5.0000000000000000e+02 5.0000000000000000e+02
-5.0000000000000000e+02 5.0000000000000000e+02
-5.0000000000000000e+02 5.0000000000000000e+02
ITEM: ATOMS id type x y z c_q[1] c_q[2] c_q[3] c_q[4] 
4 1 -29.5744 6.42224 -489.747 0.638676 0.284371 0.409441 0.58616 
3 1 492.342 12.5965 -480.588 0.586479 0.711481 0.301924 0.242235 
5 1 496.766 484.357 18.194 0.721301 0.512376 0.423133 0.195329 
1 1 490.602 -494.723 490.702 0.488569 -0.143713 0.731182 0.453894 
2 1 11.2518 493.382 489.892 0.551712 0.720337 0.203117 0.368066 
ITEM: TIMESTEP
190000
ITEM: NUMBER OF ATOMS
5
ITEM: BOX BOUNDS pp pp pp
-5.0000000000000000e+02 5.0000000000000000e+02
-5.0000000000000000e+02 5.0000000000000000e+02
-5.0000000000000000e+02 5.0000000000000000e+02
ITEM: ATOMS id type x y z c_q[1] c_q[2] c_q[3] c_q[4] 
4 1 -32.2498 6.83172 -485.094 0.624938 0.240587 0.403107 0.623759 
3 1 492.757 15.3041 -482.847 0.582063 0.733214 0.261851 0.234592 
5 1 493.158 487.451 20.0648 0.735605 0.509768 0.410071 0.175678 
1 1 491.938 -494.655 488.841 0.475056 -0.150734 0.725616 0.474429 
2 1 11.1582 493.06 490.079 0.578677 0.701158 0.197819 0.366576 
ITEM: TIMESTEP
200000
ITEM: NUMBER OF ATOMS
5
ITEM: BOX BOUNDS pp pp pp
-5.0000000000000000e+02 5.0000000000000000e+02
-5.0000000000000000e+02 5.0000000000000000e+02
-5.0000000000000000e+02 5.0000000000000000e+02
ITEM: ATOMS id type x y z c_q[1] c_q[2] c_q[3] c_q[4] 
4 1 -31.5633 6.52016 -485.826 0.652031 0.272212 0.390125 0.590389 
3 1 495.523 15.79 -480.607 0.585542 0.727797 0.283675 0.21675 
5 1 492.01 486.847 17.5408 0.708338 0.521013 0.449303 0.157889 
1 1 487.335 -493.117 494.512 0.43776 -0.159794 0.749965 0.469451 
2 1 12.9046 490.965 492.319 0.580493 0.682578 0.230566 0.379412 
ITEM: TIMESTEP
210000
ITEM: NUMBER OF ATOMS
5
ITEM: BOX BOUNDS pp pp pp
-5.0000000000000000e+02 5.0000000000000000e+02
-5.0000000000000000e+02 5.0000000000000000e+02
-5.0000000000000000e+02 5.0000000000000000e+02
ITEM: ATOMS id type x y z c_q[1] c_q[2] c_q[3] c_q[4] 
4 1 -38.47 4.80598 -489.855 0.685128 0.293503 0.359031 0.561741 
3 1 496.883 16.2814 -483.883 0.594351 0.735863 0.244476 0.213271 
5 1 495.151 489.299 18.723 0.692422 0.530518 0.461223 0.162406 
1 1 485.874 -496.841 495.388 0.436427 -0.135054 0.756679 0.467685 
2 1 20.7208 493.549 496.841 0.564665 0.674624 0.244021 0.408031 
ITEM: TIMESTEP
220000
ITEM: NUMBER OF ATOMS
5
ITEM: BOX BOUNDS pp pp pp
-5.0000000000000000e+02 5.0000000000000000e+02
-5.0000000000000000e+02 5.0000000000000000e+02
-5.0000000000000000e+02 5.0000000000000000e+02
ITEM: ATOMS id type x y z c_q[1] c_q[2] c_q[3] c_q[4] 
4 1 -46.1366 6.02073 -491.07 0.660005 0.366964 0.375763 0.537152 
3 1 493.397 15.6553 -485.074 0.606751 0.7331 0.214131 0.220378 
5 1 493.538 486.112 16.9616 0.665926 0.555462 0.474089 0.15246 
2 1 22.7258 496.814 492.567 0.556661 0.659954 0.2632 0.430483 
1 1 485.803 494.52 495.423 0.448028 -0.134148 0.757184 0.456012 
ITEM: TIMESTEP
230000
ITEM: NUMBER OF ATOMS
5
ITEM: BOX BOUNDS pp pp pp
-5.0000000000000000e+02 5.0000000000000000e+02
-5.0000000000000000e+02 5.0000000000000000e+02
-5.0000000000000000e+02 5.0000000000000000e+02
ITEM: ATOMS id type x y z c_q[1] c_q[2] c_q[3] c_q[4] 
4 1 -44.733 9.79585 -495.319 0.643176 0.379748 0.346832 0.567295 
3 1 492.864 14.7356 -484.811 0.617885 0.743999 0.188256 0.171009 
5 1 496.273 487.18 12.7538 0.674864 0.543204 0.469173 0.171357 
2 1 22.8442 498.632 489.316 0.5335 0.681814 0.267439 0.423064 
1 1 484.585 494.198 494.623 0.439207 -0.0849728 0.787004 0.424855 
ITEM: TIMESTEP
240000
ITEM: NUMBER OF ATOMS
5
ITEM: BOX BOUNDS pp pp pp
-5.0000000000000000e+02 5.0000000000000000e+02
-5.0000000000000000e+02 5.0000000000000000e+02
-5.0000000000000000e+02 5.0000000000000000e+02
ITEM: ATOMS id type x y z c_q[1] c_q[2] c_q[3] c_q[4] 
4 1 -43.9176 11.0162 -492.502 0.641277 0.376196 0.360586 0.563221 
3 1 495.037 19.8297 -487.67 0.651351 0.722546 0.175698 0.150998 
5 1 494.462 487.577 9.65133 0.671472 0.549936 0.46887 0.16388 
2 1 22.9371 -496.788 486.331 0.506193 0.705184 0.287568 0.404709 
1 1 486.035 489.576 492.596 0.379059 -0.0877712 0.797238 0.461544 
ITEM: TIMESTEP
250000
ITEM: NUMBER OF ATOMS
5
ITEM: BOX BOUNDS pp pp pp
-5.0000000000000000e+02 5.0000000000000000e+02
-5.0000000000000000e+02 5.0000000000000000e+02
-5.0000000000000000e+02 5.0000000000000000e+02
ITEM: ATOMS id type x y z c_q[1] c_q[2] c_q[3] c_q[4] 
4 1 -48.5846 8.97855 -493.331 0.654964 0.366812 0.364172 0.551225 
3 1 494.414 17.7415 -486.621 0.638326 0.733156 0.151903 0.178736 
5 1 488.995 490.076 9.60509 0.691515 0.485214 0.502261 0.184684 
2 1 29.2774 -496.044 488.548 0.533082 0.683136 0.270411 0.419556 
1 1 487.699 489.977 494.512 0.378724 -0.0903722 0.81514 0.428892 
ITEM: TIMESTEP
260000
ITEM: NUMBER OF ATOMS
5
ITEM: BOX BOUNDS pp pp pp
-5.0000000000000000e+02 5.0000000000000000e+02
-5.0000000000000000e+02 5.0000000000000000e+02
-5.0000000000000000e+02 5.0000000000000000e+02
ITEM: ATOMS id type x y z c_q[1] c_q[2] c_q[3] c_q[4] 
4 1 -49.5343 5.18716 -494.474 0.68149 0.34842 0.366442 0.529051 
3 1 499.047 20.8849 -485.813 0.621664 0.745806 0.140498 0.193823 
5 1 496.447 493.893 9.0241 0.678807 0.520795 0.498516 0.139553 
2 1 30.5419 -494.256 492.329 0.529367 0.664286 0.319468 0.420042 
1 1 484.571 491.246 489.587 0.402269 -0.136182 0.812074 0.400212 
ITEM: TIMESTEP
270000
ITEM: NUMBER OF ATOMS
5
ITEM: BOX BOUNDS pp pp pp
-5.0000000000000000e+02 5.0000000000000000e+02
-5.0000000000000000e+02 5.0000000000000000e+02
-5.0000000000000000e+02 5.0000000000000000e+02
ITEM: ATOMS id type x y z c_q[1] c_q[2] c_q[3] c_q[4] 
4 1 -46.8692 5.39908 -495.727 0.676245 0.329106 0.362023 0.550746 
3 1 493.965 18.7724 -485.035 0.608361 0.752435 0.164753 0.1913 
5 1 -494.035 492.423 6.92475 0.704087 0.514842 0.461642 0.16151 
2 1 31.6286 -495.325 493.734 0.471416 0.673088 0.379229 0.42533 
1 1 488.314 491.604 485.168 0.424437 -0.127382 0.804878 0.394713 
ITEM: TIMESTEP
280000
ITEM: NUMBER OF ATOMS
5
ITEM: BOX BOUNDS pp pp pp
-5.0000000000000000e+02 5.0000000000000000e+02
-5.0000000000000000e+02 5.0000000000000000e+02
-5.0000000000000000e+02 5.0000000000000000e+02
ITEM: ATOMS id type x y z c_q[1] c_q[2] c_q[3] c_q[4] 
4 1 -44.3333 8.5435 -490.301 0.613381 0.379679 0.391659 0.571149 
3 1 495.476 18.4581 -482.475 0.610145 0.741165 0.159424 0.230176 
5 1 499.449 492.591 11.6581 0.683934 0.522747 0.48299 0.16028 
2 1 30.1354 -498.163 493.134 0.497152 0.665509 0.364787 0.420557 
1 1 486.483 492.927 490.349 0.42907 -0.165995 0.797022 0.39128 
ITEM: TIMESTEP
290000
ITEM: NUMBER OF ATOMS
5
ITEM: BOX BOUNDS pp pp pp
-5.0000000000000000e+02 5.0000000000000000e+02
-5.0000000000000000e+02 5.0000000000000000e+02
-5.0000000000000000e+02 5.0000000000000000e+02
ITEM: ATOMS id type x y z c_q[1] c_q[2] c_q[3] c_q[4] 
4 1 -47.5975 9.62483 -491.338 0.63597 0.386334 0.342169 0.573767 
3 1 494.477 20.0785 -481.65 0.599873 0.7285 0.192628 0.268951 
5 1 500.053 488.39 11.8677 0.686202 0.532308 0.477641 0.132797 
2 1 38.131 499.158 488.476 0.469849 0.67235 0.395304 0.413426 
1 1 489.502 490.11 492.073 0.438044 -0.119643 0.810041 0.370993 
ITEM: TIMESTEP
300000
ITEM: NUMBER OF ATOMS
5
ITEM: BOX BOUNDS pp pp pp
-5.0000000000000000e+02 5.0000000000000000e+02
-5.0000000000000000e+02 5.0000000000000000e+02
-5.0000000000000000e+02 5.0000000000000000e+02
ITEM: ATOMS id type x y z c_q[1] c_q[2] c_q[3] c_q[4] 
4 1 -47.5894 11.0508 -489.396 0.619885 0.399391 0.363361 0.569384 
3 1 493.709 17.7931 -479.276 0.598902 0.722956 0.167882 0.300777 
5 1 -497.869 485.857 17.6246 0.670234 0.558262 0.464692 0.152285 
2 1 33.3082 495.033 481.706 0.491777 0.667705 0.395153 0.395195 
1 1 494.386 492.585 494.083 0.457765 -0.0943426 0.808202 0.358273 
ITEM: TIMESTEP
310000
ITEM: NUMBER OF ATOMS
5
ITEM: BOX BOUNDS pp pp pp
-5.0000000000000000e+02 5.0000000000000000e+02
-5.0000000000000000e+02 5.0000000000000000e+02
-5.0000000000000000e+02 5.0000000000000000e+02
ITEM: ATOMS id type x y z c_q[1] c_q[2] c_q[3] c_q[4] 
4 1 -42.017 9.63474 -483.923 0.627535 0.416307 0.388603 0.53092 
3 1 492.411 17.6585 -476.319 0.602769 0.717044 0.19715 0.289221 
5 1 -498.63 484.252 22.166 0.671105 0.588618 0.422093 0.158065 
2 1 35.4031 494.059 474.734 0.502648 0.675795 0.372484 0.389746 
1 1 496.051 486.473 495.927 0.436936 -0.111708 0.801587 0.392513 
ITEM: TIMESTEP
320000
ITEM: NUMBER OF ATOMS
5
ITEM: BOX BOUNDS pp pp pp
-5.0000000000000000e+02 5.0000000000000000e+02
-5.0000000000000000e+02 5.0000000000000000e+02
-5.0000000000000000e+02 5.0000000000000000e+02
ITEM: ATOMS id type x y z c_q[1] c_q[2] c_q[3] c_q[4] 
4 1 -41.6751 10.6895 -486.559 0.649335 0.398564 0.375271 0.527905 
3 1 494.305 16.587 -479.046 0.58677 0.736782 0.19324 0.274795 
5 1 -496.952 487.228 21.7465 0.682387 0.612339 0.378109 0.12815 
2 1 34.9388 -499.955 473.065 0.488189 0.706721 0.345419 0.378025 
1 1 495.258 483.301 497.276 0.485214 -0.0739443 0.763761 0.419247 
ITEM: TIMESTEP
330000
ITEM: NUMBER OF ATOMS
5
ITEM: BOX BOUNDS pp pp pp
-5.0000000000000000e+02 5.0000000000000000e+02
-5.0000000000000000e+02 5.0000000000000000e+02
-5.0000000000000000e+02 5.0000000000000000e+02
ITEM: ATOMS id type x y z c_q[1] c_q[2] c_q[3] c_q[4] 
4 1 -40.2066 8.76476 -488.541 0.624499 0.406683 0.384163 0.545003 
3 1 492.591 17.8296 -483.469 0.613817 0.730846 0.126871 0.270178 
5 1 -497.388 489.171 18.2169 0.674942 0.609702 0.388712 0.147038 
2 1 38.169 497.902 477.67 0.51345 0.720586 0.314711 0.343631 
1 1 494.355 484.184 498.544 0.434909 -0.0659665 0.780412 0.444364 
ITEM: TIMESTEP
340000
ITEM: NUMBER OF ATOMS
5
ITEM: BOX BOUNDS pp pp pp
-5.0000000000000000e+02 5.0000000000000000e+02
-5.0000000000000000e+02 5.0000000000000000e+02
-5.0000000000000000e+02 5.0000000000000000e+02
ITEM: ATOMS id type x y z c_q[1] c_q[2] c_q[3] c_q[4] 
4 1 -40.2527 5.12843 -490.006 0.588554 0.40674 0.431641 0.549411 
3 1 492.908 19.2637 -488.595 0.621607 0.711572 0.18313 0.271539 
1 1 497.352 482.811 -498.481 0.454018 -0.0433433 0.784011 0.421088 
5 1 -498.512 488.576 18.0517 0.676682 0.622172 0.369349 0.136326 
2 1 40.235 497.314 476.787 0.489608 0.761315 0.324267 0.274835 
ITEM: TIMESTEP
350000
ITEM: NUMBER OF ATOMS
5
ITEM: BOX BOUNDS pp pp pp
-5.0000000000000000e+02 5.0000000000000000e+02
-5.0000000000000000e+02 5.0000000000000000e+02
-5.0000000000000000e+02 5.0000000000000000e+02
ITEM: ATOMS id type x y z c_q[1] c_q[2] c_q[3] c_q[4] 
4 1 -37.7043 6.6767 -492.635 0.568727 0.41106 0.412379 0.580966 
3 1 488.354 23.901 -488.317 0.614067 0.71934 0.145413 0.290391 
5 1 -497.963 488.053 19.1326 0.698527 0.621943 0.32694 0.135492 
2 1 41.5654 -497.776 477.306 0.509315 0.761082 0.282605 0.28546 
1 1 -499.032 483.616 499.208 0.427399 -0.000598904 0.805015 0.411436 
ITEM: TIMESTEP
360000
ITEM: NUMBER OF ATOMS
5
ITEM: BOX BOUNDS pp pp pp
-5.0000000000000000e+02 5.0000000000000000e+02
-5.0000000000000000e+02 5.0000000000000000e+02
-5.0000000000000000e+02 5.0000000000000000e+02
ITEM: ATOMS id type x y z c_q[1] c_q[2] c_q[3] c_q[4] 
4 1 -35.9246 -3.4252 -488.461 0.55104 0.357152 0.389598 0.645764 
3 1 490.19 26.0993 -488.828 0.591042 0.740009 0.141974 0.287922 
5 1 -495.778 489.514 17.7124 0.701735 0.6272 0.281944 0.186265 
2 1 43.4132 -498.016 473.743 0.483414 0.785752 0.308636 0.231621 
1 1 -497.815 481.773 497.094 0.501249 0.0602598 0.76979 0.390566 
ITEM: TIMESTEP
370000
ITEM: NUMBER OF ATOMS
5
ITEM: BOX BOUNDS pp pp pp
-5.0000000000000000e+02 5.0000000000000000e+02
-5.0000000000000000e+02 5.0000000000000000e+02
-5.0000000000000000e+02 5.0000000000000000e+02
ITEM: ATOMS id type x y z c_q[1] c_q[2] c_q[3] c_q[4] 
4 1 -36.3285 -3.6626 -490.647 0.591436 0.331469 0.39205 0.621795 
3 1 492.943 22.7807 -493.936 0.582953 0.767533 0.0938671 0.249495 
5 1 -493.47 494.054 18.0502 0.656444 0.663917 0.306689 0.185032 
2 1 41.6134 495.047 475.866 0.465881 0.794678 0.314424 0.229303 
1 1 499.464 480.081 494.582 0.514601 0.0482226 0.750951 0.411016 
ITEM: TIMESTEP
380000
ITEM: NUMBER OF ATOMS
5
ITEM: BOX BOUNDS pp pp pp
-5.0000000000000000e+02 5.0000000000000000e+02
-5.0000000000000000e+02 5.0000000000000000e+02
-5.0000000000000000e+02 5.0000000000000000e+02
ITEM: ATOMS id type x y z c_q[1] c_q[2] c_q[3] c_q[4] 
4 1 -35.4215 -0.265354 -490.425 0.571499 0.421468 0.355625 0.607688 
3 1 489.196 20.5898 -493.282 0.585617 0.777015 0.0528823 0.224731 
5 1 -495.829 494.168 18.7723 0.6562 0.677658 0.263218 0.20223 
1 1 -497.845 478.199 496.351 0.469346 0.0533513 0.769172 0.430398 
2 1 45.8318 494.658 471.7 0.460857 0.782946 0.330409 0.255806 
ITEM: TIMESTEP
390000
ITEM: NUMBER OF ATOMS
5
ITEM: BOX BOUNDS pp pp pp
-5.0000000000000000e+02 5.0000000000000000e+02
-5.0000000000000000e+02 5.0000000000000000e+02
-5.0000000000000000e+02 5.0000000000000000e+02
ITEM: ATOMS id type x y z c_q[1] c_q[2] c_q[3] c_q[4] 
4 1 -36.0878 -1.66811 -495.838 0.575836 0.440354 0.349713 0.593466 
3 1 492.122 12.8505 -496.277 0.570665 0.788041 0.0870587 0.213902 
5 1 -488.565 493.418 16.9477 0.667742 0.674905 0.262424 0.172505 
1 1 -497.322 480.425 -499.953 0.42878 0.0671799 0.78273 0.446058 
2 1 45.8739 493.635 472.441 0.449769 0.784027 0.344198 0.25404 
ITEM: TIMESTEP
400000
ITEM: NUMBER OF ATOMS
5
ITEM: BOX BOUNDS pp pp pp
-5.0000000000000000e+02 5.0000000000000000e+02
-5.0000000000000000e+02 5.0000000000000000e+02
-5.0000000000000000e+02 5.0000000000000000e+02
ITEM: ATOMS id type x y z c_q[1] c_q[2] c_q[3] c_q[4] 
4 1 -33.6773 -4.34571 -496.248 0.560606 0.494144 0.307922 0.588836 
3 1 495.97 16.115 -494.424 0.575596 0.791393 0.127414 0.161717 
1 1 -494.634 481.271 -498.24 0.443178 0.0687385 0.773748 0.447418 
5 1 -487.793 492.944 13.0221 0.69202 0.681936 0.198799 0.128652 
2 1 48.9661 492.756 469.075 0.442532 0.785812 0.348876 0.254854 
ITEM: TIMESTEP
410000
ITEM: NUMBER OF ATOMS
5
ITEM: BOX BOUNDS pp pp pp
-5.0000000000000000e+02 5.0000000000000000e+02
-5.0000000000000000e+02 5.0000000000000000e+02
-5.0000000000000000e+02 5.0000000000000000e+02
ITEM: ATOMS id type x y z c_q[1] c_q[2] c_q[3] c_q[4] 
4 1 -31.3943 0.131783 -491.865 0.596902 0.488094 0.307347 0.557682 
3 1 493.939 10.493 -494.066 0.590089 0.781993 0.131204 0.15188 
1 1 -497.723 481.463 -496.636 0.450748 0.0854736 0.781362 0.423077 
5 1 -489.681 493.768 14.3463 0.654099 0.71501 0.223366 0.104987 
2 1 50.2683 497.686 468.414 0.433832 0.801923 0.35648 0.20404 
ITEM: TIMESTEP
420000
ITEM: NUMBER OF ATOMS
5
ITEM: BOX BOUNDS pp pp pp
-5.0000000000000000e+02 5.0000000000000000e+02
-5.0000000000000000e+02 5.0000000000000000e+02
-5.0000000000000000e+02 5.0000000000000000e+02
ITEM: ATOMS id type x y z c_q[1] c_q[2] c_q[3] c_q[4] 
4 1 -29.5881 -0.305378 -494.667 0.622468 0.452413 0.267249 0.58003 
3 1 498.157 17.4843 -497.488 0.609756 0.767669 0.133367 0.145245 
1 1 -498.643 479.012 -496.255 0.472311 0.120421 0.772018 0.407933 
5 1 -488.429 492.74 14.3544 0.644383 0.737481 0.138053 0.14776 
2 1 52.4437 498.468 467.127 0.412265 0.784596 0.40564 0.223392 
ITEM: TIMESTEP
430000
ITEM: NUMBER OF ATOMS
5
ITEM: BOX BOUNDS pp pp pp
-5.0000000000000000e+02 5.0000000000000000e+02
-5.0000000000000000e+02 5.0000000000000000e+02
-5.0000000000000000e+02 5.0000000000000000e+02
ITEM: ATOMS id type x y z c_q[1] c_q[2] c_q[3] c_q[4] 
4 1 -29.0308 3.6212 -496.145 0.604557 0.471404 0.270748 0.582224 
5 1 -493.102 495.044 19.1149 0.652892 0.735582 0.135717 0.119297 
3 1 498.89 16.3089 -498.717 0.604925 0.767457 0.141005 0.158726 
2 1 53.0924 497.88 467.485 0.414428 0.778547 0.41762 0.218419 
1 1 498.539 481.037 498.484 0.42029 0.141661 0.793167 0.417342 
ITEM: TIMESTEP
440000
ITEM: NUMBER OF ATOMS
5
ITEM: BOX BOUNDS pp pp pp
-5.0000000000000000e+02 5.0000000000000000e+02
-5.0000000000000000e+02 5.0000000000000000e+02
-5.0000000000000000e+02 5.0000000000000000e+02
ITEM: ATOMS id type x y z c_q[1] c_q[2] c_q[3] c_q[4] 
4 1 -32.9767 5.44372 -491.855 0.616838 0.441469 0.248557 0.602357 
3 1 496.565 15.6663 -500.067 0.555411 0.777137 0.208465 0.210043 
1 1 -496.862 478.665 -498.68 0.406852 0.123536 0.818335 0.3867 
5 1 -490.092 495.819 16.3249 0.634653 0.751289 0.105481 0.147151 
2 1 51.3663 494.553 465.251 0.456312 0.741834 0.437119 0.224474 
ITEM: TIMESTEP
450000
ITEM: NUMBER OF ATOMS
5
ITEM: BOX BOUNDS pp pp pp
-5.0000000000000000e+02 5.0000000000000000e+02
-5.0000000000000000e+02 5.0000000000000000e+02
-5.0000000000000000e+02 5.0000000000000000e+02
ITEM: ATOMS id type x y z c_q[1] c_q[2] c_q[3] c_q[4] 
4 1 -37.3633 3.37501 -492.515 0.592487 0.477232 0.263316 0.59319 
5 1 -489.688 496.166 15.8304 0.626928 0.745816 0.134488 0.180646 
3 1 494.227 19.9605 496.081 0.554406 0.779404 0.172922 0.235078 
1 1 -495.14 477.082 498.189 0.394957 0.186464 0.826003 0.356313 
2 1 51.4145 492.817 464.111 0.443283 0.770786 0.378334 0.257395 
ITEM: TIMESTEP
460000
ITEM: NUMBER OF ATOMS
5
ITEM: BOX BOUNDS pp pp pp
-5.0000000000000000e+02 5.0000000000000000e+02
-5.0000000000000000e+02 5.0000000000000000e+02
-5.0000000000000000e+02 5.0000000000000000e+02
ITEM: ATOMS id type x y z c_q[1] c_q[2] c_q[3] c_q[4] 
4 1 -36.9904 1.75009 -492.797 0.573014 0.498401 0.272575 0.590724 
1 1 -498.599 480.684 -498.536 0.374103 0.198591 0.827383 0.368844 
5 1 -494.641 495.2 17.3958 0.620899 0.752051 0.0989696 0.19776 
3 1 493.762 24.9418 496.288 0.546454 0.782509 0.147455 0.25947 
2 1 51.2371 495.088 467.866 0.46737 0.76922 0.364376 0.238949 
ITEM: TIMESTEP
470000
ITEM: NUMBER OF ATOMS
5
ITEM: BOX BOUNDS pp pp pp
-5.0000000000000000e+02 5.0000000000000000e+02
-5.0000000000000000e+02 5.0000000000000000e+02
-5.0000000000000000e+02 5.0000000000000000e+02
ITEM: ATOMS id type x y z c_q[1] c_q[2] c_q[3] c_q[4] 
4 1 -33.9593 1.16412 -497.094 0.549755 0.477464 0.298907 0.616809 
1 1 498.105 475.85 -497.703 0.337058 0.176389 0.832026 0.403747 
5 1 -491.346 495.364 18.4887 0.611545 0.765319 0.0865838 0.181114 
3 1 496.014 20.0899 496.566 0.545502 0.785326 0.156565 0.247342 
2 1 51.1903 495.35 468.476 0.46352 0.794736 0.331886 0.208316 
ITEM: TIMESTEP
480000
ITEM: NUMBER OF ATOMS
5
ITEM: BOX BOUNDS pp pp pp
-5.0000000000000000e+02 5.0000000000000000e+02
-5.0000000000000000e+02 5.0000000000000000e+02
-5.0000000000000000e+02 5.0000000000000000e+02
ITEM: ATOMS id type x y z c_q[1] c_q[2] c_q[3] c_q[4] 
4 1 -31.7781 2.41979 500.039 0.525664 0.517815 0.332716 0.587235 
3 1 496.118 17.8187 -499.302 0.56462 0.773519 0.197376 0.209558 
1 1 497.109 469.647 -497.65 0.294674 0.150032 0.849451 0.411207 
5 1 -490.371 496.99 21.2043 0.604032 0.758186 0.0918932 0.227717 
2 1 55.1209 497.604 461.915 0.429216 0.804507 0.368042 0.181897 
ITEM: TIMESTEP
490000
ITEM: NUMBER OF ATOMS
5
ITEM: BOX BOUNDS pp pp pp
-5.0000000000000000e+02 5.0000000000000000e+02
-5.0000000000000000e+02 5.0000000000000000e+02
-5.0000000000000000e+02 5.0000000000000000e+02
ITEM: ATOMS id type x y z c_q[1] c_q[2] c_q[3] c_q[4] 
3 1 -499.944 20.1901 -494.646 0.604981 0.744878 0.173778 0.221258 
1 1 495.824 467.507 -494.669 0.288065 0.132212 0.855518 0.409424 
5 1 -483.572 495.202 21.0319 0.620036 0.751 0.119111 0.193306 
2 1 52.9474 -499.595 455.65 0.461774 0.769272 0.355686 0.261674 
4 1 -35.5177 -1.67302 499.261 0.553005 0.539443 0.323406 0.546438 
ITEM: TIMESTEP
500000
ITEM: NUMBER OF ATOMS
5
ITEM: BOX BOUNDS pp pp pp
-5.0000000000000000e+02 5.0000000000000000e+02
-5.0000000000000000e+02 5.0000000000000000e+02
-5.0000000000000000e+02 5.0000000000000000e+02
ITEM: ATOMS id type x y z c_q[1] c_q[2] c_q[3] c_q[4] 