ITEM: TIMESTEP
0
ITEM: NUMBER OF ATOMS
10
ITEM: BOX BOUNDS
-500.000000 500.000000
-500.000000 500.000000
-500.000000 500.000000
ITEM: ATOMS id type x y z c_q[1] c_q[2] c_q[3] c_q[4]
1 1 -500.000000 -500.000000 -500.000000 0.596141 0.509803 0.474810 0.399090
2 1 -166.666667 -500.000000 -500.000000 0.235591 0.492723 0.362524 0.755180
3 1 166.666667 -500.000000 -500.000000 0.643446 0.230811 0.610742 0.399623
4 1 -500.000000 -166.666667 -500.000000 0.314570 0.621392 0.717447 0.013669
5 1 -166.666667 -166.666667 -500.000000 0.612711 0.376122 0.543071 0.433810
6 1 166.666667 -166.666667 -500.000000 0.084365 0.667772 0.705106 0.223132
7 1 -500.000000 166.666667 -500.000000 0.616187 0.372711 0.693645 0.016050
8 1 -166.666667 166.666667 -500.000000 0.550666 0.493182 0.644309 0.195969
9 1 166.666667 166.666667 -500.000000 0.732494 0.617098 0.011572 0.287244
10 1 -500.000000 -500.000000 -166.666667 0.660520 0.021538 0.366537 0.654905
