LAMMPS data file

10 atoms
10 ellipsoids
0 bonds
0 angles
0 dihedrals

1 atom types
0 bond types
0 angle types
0 dihedral types

-500.000000 500.000000 xlo xhi
-500.000000 500.000000 ylo yhi
-500.000000 500.000000 zlo zhi

Masses

1 203166.000000

Atoms

1 1 -500.000000 -500.000000 -500.000000 1 1.000000 3 0.000000
2 1 -166.666667 -500.000000 -500.000000 1 1.000000 4 0.000000
3 1 166.666667 -500.000000 -500.000000 1 1.000000 5 0.000000
4 1 -500.000000 -166.666667 -500.000000 1 1.000000 6 0.000000
5 1 -166.666667 -166.666667 -500.000000 1 1.000000 7 0.000000
6 1 166.666667 -166.666667 -500.000000 1 1.000000 8 0.000000
7 1 -500.000000 166.666667 -500.000000 1 1.000000 9 0.000000
8 1 -166.666667 166.666667 -500.000000 1 1.000000 10 0.000000
9 1 166.666667 166.666667 -500.000000 1 1.000000 11 0.000000
10 1 -500.000000 -500.000000 -166.666667 1 1.000000 12 0.000000

Ellipsoids

1 55.000000 110.000000 110.000000 0.596141 0.509803 0.474810 0.399090
2 55.000000 110.000000 110.000000 0.235591 0.492723 0.362524 0.755180
3 55.000000 110.000000 110.000000 0.643446 0.230811 0.610742 0.399623
4 55.000000 110.000000 110.000000 0.314570 0.621392 0.717447 0.013669
5 55.000000 110.000000 110.000000 0.612711 0.376122 0.543071 0.433810
6 55.000000 110.000000 110.000000 0.084365 0.667772 0.705106 0.223132
7 55.000000 110.000000 110.000000 0.616187 0.372711 0.693645 0.016050
8 55.000000 110.000000 110.000000 0.550666 0.493182 0.644309 0.195969
9 55.000000 110.000000 110.000000 0.732494 0.617098 0.011572 0.287244
10 55.000000 110.000000 110.000000 0.660520 0.021538 0.366537 0.654905




