ITEM: TIMESTEP
0
ITEM: NUMBER OF ATOMS
30
ITEM: BOX BOUNDS
-500.000000 500.000000
-500.000000 500.000000
-500.000000 500.000000
ITEM: ATOMS id type x y z c_q[1] c_q[2] c_q[3] c_q[4]
1 1 -500.000000 -500.000000 -500.000000 0.764927 0.550113 0.095999 0.321008
2 1 -250.000000 -500.000000 -500.000000 0.710668 0.038607 0.618508 0.333028
3 1 0.000000 -500.000000 -500.000000 0.131428 0.619570 0.398882 0.663139
4 1 250.000000 -500.000000 -500.000000 0.116058 0.654307 0.624418 0.410507
5 1 -500.000000 -250.000000 -500.000000 0.642733 0.660654 0.301570 0.243896
6 1 -250.000000 -250.000000 -500.000000 0.441101 0.024133 0.236795 0.865318
7 1 0.000000 -250.000000 -500.000000 0.634638 0.191849 0.179595 0.726756
8 1 250.000000 -250.000000 -500.000000 0.590225 0.401951 0.699099 0.036478
9 1 -500.000000 0.000000 -500.000000 0.536482 0.766166 0.024163 0.352976
10 1 -250.000000 0.000000 -500.000000 0.593500 0.279430 0.552079 0.514670
11 1 0.000000 0.000000 -500.000000 0.515995 0.802558 0.038757 0.296897
12 1 250.000000 0.000000 -500.000000 0.500749 0.214661 0.823835 0.156422
13 1 -500.000000 250.000000 -500.000000 0.532097 0.491899 0.447558 0.524022
14 1 -250.000000 250.000000 -500.000000 0.140400 0.850278 0.381893 0.333877
15 1 0.000000 250.000000 -500.000000 0.983813 0.083344 0.072004 0.141354
16 1 250.000000 250.000000 -500.000000 0.111250 0.563334 0.818585 0.014030
17 1 -500.000000 -500.000000 -250.000000 0.846045 0.326881 0.402337 0.124427
18 1 -250.000000 -500.000000 -250.000000 0.590123 0.301485 0.739319 0.119449
19 1 0.000000 -500.000000 -250.000000 0.544748 0.516747 0.536433 0.385308
20 1 250.000000 -500.000000 -250.000000 0.734402 0.589734 0.100245 0.320654
21 1 -500.000000 -250.000000 -250.000000 0.019446 0.758314 0.164180 0.630577
22 1 -250.000000 -250.000000 -250.000000 0.143771 0.563003 0.765227 0.277100
23 1 0.000000 -250.000000 -250.000000 0.110942 0.189601 0.702817 0.676603
24 1 250.000000 -250.000000 -250.000000 0.362761 0.632614 0.666329 0.155595
25 1 -500.000000 0.000000 -250.000000 0.682221 0.696112 0.113377 0.192737
26 1 -250.000000 0.000000 -250.000000 0.569771 0.462040 0.423608 0.531447
27 1 0.000000 0.000000 -250.000000 0.002564 0.330440 0.651451 0.682945
28 1 250.000000 0.000000 -250.000000 0.678123 0.366842 0.213582 0.599966
29 1 -500.000000 250.000000 -250.000000 0.068702 0.279343 0.330136 0.899031
30 1 -250.000000 250.000000 -250.000000 0.250350 0.232326 0.305283 0.888905
