ITEM: TIMESTEP
0
ITEM: NUMBER OF ATOMS
55
ITEM: BOX BOUNDS
-500.000000 500.000000
-500.000000 500.000000
-500.000000 500.000000
ITEM: ATOMS id type x y z c_q[1] c_q[2] c_q[3] c_q[4]
1 1 -500.000000 -500.000000 -500.000000 0.770476 0.031875 0.414930 0.482891
2 1 -250.000000 -500.000000 -500.000000 0.666143 0.145910 0.618837 0.389877
3 1 0.000000 -500.000000 -500.000000 0.394130 0.653624 0.485428 0.426375
4 1 250.000000 -500.000000 -500.000000 0.863530 0.321628 0.263690 0.285200
5 1 -500.000000 -250.000000 -500.000000 0.834253 0.119048 0.497769 0.205122
6 1 -250.000000 -250.000000 -500.000000 0.386058 0.201149 0.805909 0.401258
7 1 0.000000 -250.000000 -500.000000 0.509961 0.476343 0.360690 0.618822
8 1 250.000000 -250.000000 -500.000000 0.012787 0.092713 0.598398 0.795714
9 1 -500.000000 0.000000 -500.000000 0.425236 0.064106 0.399325 0.809694
10 1 -250.000000 0.000000 -500.000000 0.771837 0.032610 0.212710 0.598296
11 1 0.000000 0.000000 -500.000000 0.003231 0.724625 0.680650 0.107810
12 1 250.000000 0.000000 -500.000000 0.197886 0.509869 0.523682 0.653171
13 1 -500.000000 250.000000 -500.000000 0.637517 0.277173 0.036126 0.717943
14 1 -250.000000 250.000000 -500.000000 0.469533 0.353723 0.615683 0.524741
15 1 0.000000 250.000000 -500.000000 0.627223 0.604794 0.475270 0.122206
16 1 250.000000 250.000000 -500.000000 0.975880 0.146719 0.066329 0.147418
17 1 -500.000000 -500.000000 -250.000000 0.576541 0.553099 0.117561 0.589798
18 1 -250.000000 -500.000000 -250.000000 0.913010 0.333975 0.183922 0.145075
19 1 0.000000 -500.000000 -250.000000 0.534083 0.480935 0.511908 0.470539
20 1 250.000000 -500.000000 -250.000000 0.316669 0.558856 0.686192 0.341380
21 1 -500.000000 -250.000000 -250.000000 0.661197 0.625491 0.180911 0.372627
22 1 -250.000000 -250.000000 -250.000000 0.596063 0.747113 0.103678 0.275285
23 1 0.000000 -250.000000 -250.000000 0.553886 0.212433 0.477270 0.648302
24 1 250.000000 -250.000000 -250.000000 0.043354 0.106945 0.984380 0.132964
25 1 -500.000000 0.000000 -250.000000 0.610259 0.577214 0.493412 0.225724
26 1 -250.000000 0.000000 -250.000000 0.240690 0.040160 0.707102 0.663673
27 1 0.000000 0.000000 -250.000000 0.117681 0.227718 0.484688 0.836285
28 1 250.000000 0.000000 -250.000000 0.589160 0.299386 0.173448 0.730188
29 1 -500.000000 250.000000 -250.000000 0.595940 0.506683 0.620883 0.051307
30 1 -250.000000 250.000000 -250.000000 0.645667 0.707390 0.196127 0.210350
31 1 0.000000 250.000000 -250.000000 0.171113 0.628284 0.455459 0.607072
32 1 250.000000 250.000000 -250.000000 0.652793 0.466195 0.206591 0.560217
33 1 -500.000000 -500.000000 0.000000 0.047842 0.617676 0.741617 0.257278
34 1 -250.000000 -500.000000 0.000000 0.813333 0.530727 0.155114 0.180993
35 1 0.000000 -500.000000 0.000000 0.369364 0.732484 0.431452 0.375350
36 1 250.000000 -500.000000 0.000000 0.422661 0.025990 0.416918 0.804277
37 1 -500.000000 -250.000000 0.000000 0.679275 0.593666 0.301918 0.308208
38 1 -250.000000 -250.000000 0.000000 0.646208 0.650082 0.275650 0.289525
39 1 0.000000 -250.000000 0.000000 0.343373 0.101539 0.568527 0.740650
40 1 250.000000 -250.000000 0.000000 0.745602 0.218614 0.628506 0.035565
41 1 -500.000000 0.000000 0.000000 0.746527 0.133501 0.651795 0.006195
42 1 -250.000000 0.000000 0.000000 0.320557 0.757400 0.366136 0.435354
43 1 0.000000 0.000000 0.000000 0.614429 0.713414 0.185864 0.281020
44 1 250.000000 0.000000 0.000000 0.713968 0.241203 0.354666 0.553428
45 1 -500.000000 250.000000 0.000000 0.505255 0.309907 0.773326 0.225038
46 1 -250.000000 250.000000 0.000000 0.563377 0.550543 0.550974 0.275566
47 1 0.000000 250.000000 0.000000 0.281849 0.203247 0.625130 0.698903
48 1 250.000000 250.000000 0.000000 0.324030 0.590856 0.703261 0.226534
49 1 -500.000000 -500.000000 250.000000 0.745108 0.219426 0.596496 0.202136
50 1 -250.000000 -500.000000 250.000000 0.710934 0.321345 0.245938 0.575174
51 1 0.000000 -500.000000 250.000000 0.335280 0.184934 0.760911 0.523833
52 1 250.000000 -500.000000 250.000000 0.648330 0.634962 0.353180 0.227499
53 1 -500.000000 -250.000000 250.000000 0.323920 0.832843 0.446804 0.042609
54 1 -250.000000 -250.000000 250.000000 0.207513 0.429410 0.529300 0.701702
55 1 0.000000 -250.000000 250.000000 0.017635 0.562110 0.502111 0.656967
