ITEM: TIMESTEP
0
ITEM: NUMBER OF ATOMS
55
ITEM: BOX BOUNDS pp pp pp
-5.0000000000000000e+02 5.0000000000000000e+02
-5.0000000000000000e+02 5.0000000000000000e+02
-5.0000000000000000e+02 5.0000000000000000e+02
ITEM: ATOMS id type x y z c_q[1] c_q[2] c_q[3] c_q[4] 
1 1 -500 -500 -500 0.770476 0.031875 0.41493 0.482891 
2 1 -250 -500 -500 0.666143 0.14591 0.618837 0.389877 
3 1 0 -500 -500 0.39413 0.653624 0.485428 0.426375 
4 1 250 -500 -500 0.86353 0.321628 0.26369 0.2852 
5 1 -500 -250 -500 0.834253 0.119048 0.497769 0.205122 
6 1 -250 -250 -500 0.386058 0.201149 0.805909 0.401258 
7 1 0 -250 -500 0.509961 0.476343 0.36069 0.618822 
8 1 250 -250 -500 0.012787 0.092713 0.598398 0.795714 
9 1 -500 0 -500 0.425236 0.064106 0.399325 0.809694 
10 1 -250 0 -500 0.771837 0.03261 0.21271 0.598296 
11 1 0 0 -500 0.003231 0.724625 0.68065 0.10781 
12 1 250 0 -500 0.197886 0.509869 0.523682 0.653171 
13 1 -500 250 -500 0.637517 0.277173 0.036126 0.717943 
14 1 -250 250 -500 0.469533 0.353723 0.615683 0.524741 
15 1 0 250 -500 0.627223 0.604794 0.47527 0.122206 
16 1 250 250 -500 0.97588 0.146719 0.066329 0.147418 
17 1 -500 -500 -250 0.576541 0.553099 0.117561 0.589798 
18 1 -250 -500 -250 0.91301 0.333975 0.183922 0.145075 
19 1 0 -500 -250 0.534083 0.480935 0.511908 0.470539 
20 1 250 -500 -250 0.316669 0.558856 0.686192 0.34138 
21 1 -500 -250 -250 0.661197 0.625491 0.180911 0.372627 
22 1 -250 -250 -250 0.596063 0.747113 0.103678 0.275285 
23 1 0 -250 -250 0.553886 0.212433 0.47727 0.648302 
24 1 250 -250 -250 0.043354 0.106945 0.98438 0.132964 
25 1 -500 0 -250 0.610259 0.577214 0.493412 0.225724 
26 1 -250 0 -250 0.24069 0.04016 0.707102 0.663673 
27 1 0 0 -250 0.117681 0.227718 0.484688 0.836285 
28 1 250 0 -250 0.58916 0.299386 0.173448 0.730188 
29 1 -500 250 -250 0.59594 0.506683 0.620883 0.051307 
30 1 -250 250 -250 0.645667 0.70739 0.196127 0.21035 
31 1 0 250 -250 0.171113 0.628284 0.455459 0.607072 
32 1 250 250 -250 0.652793 0.466195 0.206591 0.560217 
33 1 -500 -500 0 0.047842 0.617676 0.741617 0.257278 
34 1 -250 -500 0 0.813333 0.530727 0.155114 0.180993 
35 1 0 -500 0 0.369364 0.732484 0.431452 0.37535 
36 1 250 -500 0 0.422661 0.02599 0.416918 0.804277 
37 1 -500 -250 0 0.679275 0.593666 0.301918 0.308208 
38 1 -250 -250 0 0.646208 0.650082 0.27565 0.289525 
39 1 0 -250 0 0.343373 0.101539 0.568527 0.74065 
40 1 250 -250 0 0.745602 0.218614 0.628506 0.035565 
41 1 -500 0 0 0.746527 0.133501 0.651795 0.006195 
42 1 -250 0 0 0.320557 0.7574 0.366136 0.435354 
43 1 0 0 0 0.614429 0.713414 0.185864 0.28102 
44 1 250 0 0 0.713968 0.241203 0.354666 0.553428 
45 1 -500 250 0 0.505255 0.309907 0.773326 0.225038 
46 1 -250 250 0 0.563377 0.550543 0.550974 0.275566 
47 1 0 250 0 0.281849 0.203247 0.62513 0.698903 
48 1 250 250 0 0.32403 0.590856 0.703261 0.226534 
49 1 -500 -500 250 0.745108 0.219426 0.596496 0.202136 
50 1 -250 -500 250 0.710934 0.321345 0.245938 0.575174 
51 1 0 -500 250 0.33528 0.184934 0.760911 0.523833 
52 1 250 -500 250 0.64833 0.634962 0.35318 0.227499 
53 1 -500 -250 250 0.32392 0.832843 0.446804 0.042609 
54 1 -250 -250 250 0.207513 0.42941 0.5293 0.701702 
55 1 0 -250 250 0.017635 0.56211 0.502111 0.656967 
ITEM: TIMESTEP
10000
ITEM: NUMBER OF ATOMS
55
ITEM: BOX BOUNDS pp pp pp
-5.0000000000000000e+02 5.0000000000000000e+02
-5.0000000000000000e+02 5.0000000000000000e+02
-5.0000000000000000e+02 5.0000000000000000e+02
ITEM: ATOMS id type x y z c_q[1] c_q[2] c_q[3] c_q[4] 
10 1 -250.777 0.0762537 -495.393 0.798783 0.0130761 0.15526 0.581093 
14 1 -253.291 250.768 -496.913 0.45331 0.350135 0.616665 0.540037 
16 1 247.966 252.232 -498.042 0.972108 0.169924 0.0489926 0.154049 
2 1 -252.535 498.844 -497.733 0.658332 0.152229 0.626351 0.388728 
1 1 493.367 498.775 -499.27 0.773861 0.0316061 0.390173 0.4979 
17 1 -499.15 -498.57 -255.3 0.56936 0.552445 0.101689 0.600245 
18 1 -250.601 -497.64 -247.201 0.918066 0.319987 0.151643 0.178234 
19 1 3.73793 -494.357 -254.878 0.555616 0.470713 0.507768 0.460317 
21 1 -499.721 -245.326 -253.554 0.610923 0.618727 0.219266 0.442575 
22 1 -248.113 -247.924 -249.907 0.581653 0.712271 0.149791 0.363197 
23 1 2.24319 -250.039 -251.308 0.515781 0.190354 0.478352 0.684773 
24 1 246.735 -246.988 -245.341 0.0597467 0.085978 0.984289 0.142171 
28 1 253.718 -7.28391 -252.07 0.564273 0.311103 0.162637 0.747235 
26 1 -248.216 -0.213757 -244.581 0.265689 0.0517449 0.70321 0.65744 
27 1 0.557304 0.0573986 -248.717 0.0928969 0.181507 0.512167 0.834333 
25 1 496.836 7.29003 -245.331 0.569532 0.598538 0.532126 0.185007 
30 1 -248.851 252.118 -253.504 0.660621 0.68869 0.192393 0.22863 
31 1 -3.86771 246.782 -249.128 0.170466 0.597939 0.449891 0.641099 
32 1 252.665 254.577 -251.097 0.669002 0.460516 0.22952 0.53636 
29 1 -499.079 250.218 -254.402 0.59276 0.415469 0.688799 0.0397041 
20 1 245.465 497.654 -245.25 0.31338 0.600237 0.670533 0.30314 
37 1 -496.989 -251.144 -5.62159 0.694108 0.579769 0.310134 0.293085 
38 1 -254.349 -253.976 -1.52207 0.651987 0.621666 0.293785 0.319587 
39 1 -2.69654 -251.42 -3.24187 0.370339 0.0761284 0.554232 0.741539 
41 1 499.561 0.814557 -6.02919 0.754222 0.130047 0.64257 0.0366218 
46 1 -249.376 248.244 -1.39671 0.573468 0.536256 0.56938 0.243661 
47 1 1.63992 247.116 -1.31714 0.336632 0.189479 0.593297 0.706241 
48 1 247.065 257.257 -1.82679 0.364613 0.56293 0.685112 0.284235 
33 1 -496.463 499.086 -4.86028 0.0206961 0.618233 0.740014 0.264082 
34 1 -249.78 494.917 -5.89931 0.826472 0.523797 0.0973359 0.181951 
35 1 4.86965 498.179 -1.84133 0.380007 0.724263 0.439622 0.371175 
36 1 244.88 -499.38 0.520192 0.39994 0.0376768 0.438808 0.803789 
40 1 245.05 -248.642 0.780058 0.789653 0.211506 0.571877 0.0683371 
42 1 -255.595 4.40966 3.61828 0.282657 0.770309 0.401606 0.406746 
43 1 -1.37352 3.54536 0.852572 0.627556 0.713074 0.164106 0.266022 
44 1 251.296 1.50708 1.38356 0.710343 0.247027 0.373912 0.542752 
45 1 498.676 250.062 2.07922 0.482715 0.346415 0.76528 0.247648 
50 1 -247.328 -498.018 242.539 0.705421 0.351136 0.293244 0.541381 
51 1 1.96237 -497.826 248.133 0.303886 0.157601 0.782416 0.520231 
53 1 -498.043 -247.886 250.44 0.320593 0.818543 0.474429 0.0461 
54 1 -247.274 -248.849 250.271 0.227423 0.425749 0.493865 0.723267 
55 1 -0.175773 -248.756 250.958 0.0160403 0.539213 0.519549 0.662617 
49 1 -497.307 495.65 255.797 0.748799 0.245405 0.586464 0.187446 
52 1 248.115 492.203 249.427 0.626287 0.654183 0.344302 0.24752 
4 1 245.069 -497.913 497.24 0.847923 0.331343 0.22624 0.346489 
6 1 -245.81 -248.179 497.499 0.377384 0.167618 0.819061 0.398276 
7 1 -1.01348 -240.075 498.3 0.523051 0.49636 0.32465 0.612084 
8 1 249.663 -243.182 495.893 0.0310732 0.161377 0.59887 0.783803 
5 1 493.848 -255.774 494.539 0.845008 0.109275 0.46831 0.233893 
11 1 3.96467 -0.228898 495.083 0.0168626 0.716027 0.689637 0.106877 
12 1 248.132 5.13376 499.404 0.161872 0.52399 0.507638 0.664481 
9 1 499.134 1.58617 499.146 0.383815 0.0614025 0.406497 0.826847 
13 1 -500.087 251.789 497.677 0.646413 0.245023 0.120731 0.712417 
15 1 1.13675 247.92 498.243 0.59502 0.636031 0.47381 0.130071 
3 1 1.18825 498.303 495.442 0.370865 0.66715 0.474884 0.438014 
ITEM: TIMESTEP
20000
ITEM: NUMBER OF ATOMS
55
ITEM: BOX BOUNDS pp pp pp
-5.0000000000000000e+02 5.0000000000000000e+02
-5.0000000000000000e+02 5.0000000000000000e+02
-5.0000000000000000e+02 5.0000000000000000e+02
ITEM: ATOMS id type x y z c_q[1] c_q[2] c_q[3] c_q[4] 
8 1 249.632 -239.522 -496.025 0.0153484 0.1433 0.596428 0.789622 
10 1 -247.753 -1.15817 -494.881 0.779718 0.00292492 0.191325 0.596176 
9 1 497.806 -8.52744 -497.936 0.422124 0.070444 0.39527 0.81278 
12 1 245.304 1.57074 -493.828 0.151512 0.51762 0.542044 0.644439 
14 1 -252.838 250.912 -497.759 0.418632 0.374607 0.65591 0.504181 
15 1 6.63624 250.212 499.903 0.594348 0.644907 0.459009 0.141971 
16 1 248.899 252.648 -495.692 0.979836 0.162032 0.0888839 0.0759398 
2 1 -252.469 494.678 -498.965 0.642578 0.116298 0.628222 0.422971 
18 1 -249.073 -496.263 -249.7 0.918494 0.332421 0.146954 0.155784 
19 1 6.73088 -493.099 -257.12 0.537035 0.457502 0.531812 0.468467 
20 1 242.405 -496.682 -248.904 0.334447 0.632646 0.650493 0.254486 
22 1 -243.063 -249.585 -251.118 0.552567 0.751624 0.118543 0.340115 
23 1 1.31063 -254.035 -252.721 0.548888 0.143108 0.473311 0.673957 
24 1 246.958 -243.241 -245.314 0.0597495 0.083937 0.989636 0.10003 
21 1 499.027 -249.219 -253.577 0.616046 0.595002 0.226467 0.463867 
26 1 -247.776 -2.49971 -246.346 0.253649 0.0262122 0.715038 0.650919 
28 1 251.611 -11.0471 -246.803 0.520215 0.340972 0.167091 0.764981 
27 1 4.34348 4.2877 -250.53 0.0588604 0.171993 0.533667 0.825926 
25 1 499.785 8.16834 -249.171 0.544101 0.608828 0.52437 0.241493 
30 1 -243.305 250.986 -253.17 0.656618 0.699678 0.168718 0.22547 
31 1 -5.01002 245.329 -249.498 0.185785 0.568216 0.469816 0.649529 
32 1 247.757 252.295 -254.911 0.663685 0.44502 0.23625 0.55287 
29 1 -499.42 249.316 -255.406 0.579988 0.429605 0.691886 -0.0186221 
17 1 -493 496.314 -256.976 0.552685 0.549314 0.102164 0.618349 
33 1 -496.758 -496.1 -10.9688 0.0541619 0.657227 0.696118 0.283794 
37 1 -499.43 -246.297 -12.3595 0.666002 0.596638 0.33471 0.297378 
38 1 -254.59 -250.253 -4.06758 0.65672 0.621986 0.263115 0.335593 
39 1 1.89875 -254.448 -8.50598 0.387625 0.0563129 0.560516 0.729656 
40 1 246.702 -252.732 -9.90433 0.773099 0.236332 0.586678 0.0476868 
43 1 -0.625926 -2.69902 -1.26837 0.606916 0.724924 0.208559 0.250282 
44 1 253.42 5.67672 -2.75667 0.687009 0.250427 0.415001 0.541368 
46 1 -243.895 249.703 -3.73034 0.555483 0.565913 0.54994 0.262195 
47 1 -0.00935026 250.559 -1.45475 0.339755 0.167364 0.600838 0.703953 
45 1 496.331 247.351 -1.69677 0.478061 0.33155 0.773839 0.25041 
34 1 -246.351 495.146 -6.43894 0.854989 0.501293 0.0857817 0.101691 
35 1 2.22518 493.892 -5.92317 0.386164 0.729714 0.411491 0.386095 
41 1 493.653 -0.508499 0.674899 0.736794 0.18735 0.649355 0.0193086 
42 1 -256.454 5.85443 5.72695 0.268435 0.731597 0.430097 0.455768 
48 1 251.473 255.467 3.69253 0.390755 0.583196 0.661724 0.263274 
36 1 241.726 496.969 0.101703 0.412137 0.0409777 0.407742 0.813763 
50 1 -251.379 -492.506 247.71 0.68965 0.333427 0.30093 0.568023 
51 1 4.11938 -494.963 250.947 0.265631 0.150468 0.811982 0.497479 
53 1 -496.558 -247.561 247.283 0.318703 0.824625 0.467128 0.0145987 
54 1 -251.633 -251.338 251.799 0.254138 0.400517 0.503073 0.722439 
55 1 3.38619 -246.233 253.255 -0.00862647 0.570232 0.52238 0.63394 
49 1 -495.234 499.658 254.355 0.740195 0.235357 0.602496 0.183624 
52 1 246.018 498.145 243.752 0.659722 0.658376 0.298294 0.205739 
1 1 495.557 499.258 498.005 0.781724 0.0384 0.383518 0.490251 
6 1 -238.643 -245.703 497.401 0.37117 0.181463 0.808649 0.418796 
7 1 -5.45484 -241.018 493.941 0.53905 0.401899 0.313688 0.670449 
5 1 493.872 -250.727 496.888 0.854992 0.11105 0.445448 0.241314 
11 1 7.79677 -4.92633 494.076 0.0229599 0.726615 0.67432 0.129595 
13 1 -498.958 246.776 497.916 0.626073 0.254953 0.166801 0.717781 
3 1 -0.297203 498.985 496.776 0.378469 0.678277 0.451345 0.439306 
4 1 246.132 -499.386 497.349 0.853689 0.303475 0.203372 0.371157 
ITEM: TIMESTEP
30000
ITEM: NUMBER OF ATOMS
55
ITEM: BOX BOUNDS pp pp pp
-5.0000000000000000e+02 5.0000000000000000e+02
-5.0000000000000000e+02 5.0000000000000000e+02
-5.0000000000000000e+02 5.0000000000000000e+02
ITEM: ATOMS id type x y z c_q[1] c_q[2] c_q[3] c_q[4] 
8 1 253.555 -235.811 -498.51 -0.0200202 0.160366 0.592562 0.789146 
10 1 -247.182 -6.77888 -493.95 0.772176 -0.0269114 0.17331 0.610723 
12 1 243.493 8.21531 -496.023 0.182766 0.518462 0.516117 0.656823 
13 1 -496.545 247.159 -498.818 0.608451 0.221424 0.147359 0.747693 
15 1 7.381 249.912 -499.048 0.562397 0.685881 0.441452 0.135633 
16 1 249.957 258.002 -495.521 0.966526 0.211982 0.110544 0.0931234 
2 1 -251.106 493.844 -497.403 0.64621 0.152804 0.643465 0.38081 
18 1 -253.973 -499.622 -252.951 0.924661 0.324839 0.0938824 0.175121 
19 1 5.33101 -488.717 -260.7 0.518006 0.514252 0.503631 0.462138 
20 1 243.825 -496.607 -249.669 0.379716 0.591758 0.654154 0.278785 
21 1 499.592 -251.084 -253.604 0.609954 0.596356 0.205327 0.479746 
22 1 -241.043 -246.236 -250.583 0.573624 0.754459 0.0941507 0.304766 
23 1 3.88764 -256.29 -248.846 0.576824 0.130597 0.421056 0.687699 
24 1 242.121 -249.264 -248.225 0.0854716 0.0990376 0.989553 0.0605958 
26 1 -248.4 0.397559 -247.996 0.300642 0.00477016 0.687354 0.661163 
27 1 5.86414 -0.663774 -251.797 0.0647985 0.213274 0.52813 0.819386 
28 1 251.4 -11.2041 -245.729 0.45108 0.316144 0.165178 0.818105 
25 1 -496.268 6.92017 -251.647 0.589882 0.573392 0.503101 0.26486 
29 1 -499.065 249.686 -259.582 0.613182 0.431988 0.661274 0.0105223 
30 1 -248.395 249.181 -255.13 0.636089 0.70025 0.188682 0.263514 
31 1 -2.18349 249.715 -248.311 0.209038 0.587481 0.444963 0.642789 
32 1 245.013 253.061 -246.08 0.639865 0.461258 0.286373 0.543879 
17 1 -494.263 497.23 -258.266 0.567613 0.593201 0.0945102 0.563025 
33 1 -490.61 -498.403 -6.13905 0.0499599 0.648619 0.715249 0.255375 
36 1 245.03 -496.049 -3.749 0.430231 0.077955 0.421036 0.794703 
39 1 0.249561 -254.587 -8.67078 0.392725 0.0264668 0.552558 0.734675 
40 1 243.35 -253.659 -10.9324 0.785831 0.213834 0.577138 0.0604704 
37 1 498.374 -244.642 -9.64591 0.627154 0.611791 0.352069 0.329297 
43 1 0.97895 2.50124 -2.50313 0.59269 0.734924 0.21034 0.253696 
44 1 253.066 1.28752 -1.31942 0.716387 0.203827 0.363221 0.559745 
46 1 -247.31 245.579 -10.9378 0.539434 0.600975 0.517515 0.282876 
47 1 -3.74241 248.272 -4.12453 0.357697 0.208862 0.606708 0.67848 
45 1 495.945 245.252 -3.10586 0.399821 0.338132 0.807588 0.271315 
34 1 -244.65 494.824 -9.44116 0.849414 0.508073 0.0684241 0.1252 
35 1 -4.37607 494.052 -5.14424 0.371969 0.735693 0.39935 0.401141 
38 1 -251.699 -251.707 1.00579 0.673042 0.619585 0.193046 0.35477 
41 1 492.737 -5.61032 0.229774 0.725629 0.162733 0.666168 0.0565703 
42 1 -254.558 7.42441 5.21613 0.271078 0.732256 0.428443 0.454703 
48 1 252.98 250.531 2.25988 0.378008 0.573685 0.671525 0.277578 
49 1 -492.103 -499.38 261.108 0.713703 0.245811 0.638986 0.147993 
50 1 -251.496 -491.947 251.486 0.661423 0.339458 0.33332 0.579815 
51 1 4.09281 -495.49 254.49 0.328509 0.0825547 0.784747 0.519074 
53 1 -496.706 -244.693 248.279 0.327497 0.824092 0.462103 -0.00894784 
54 1 -254.924 -254.617 253.076 0.255742 0.404077 0.49619 0.724647 
55 1 5.92058 -243.519 259.375 0.0176992 0.594145 0.473523 0.649965 
52 1 248.821 499.592 241.447 0.674648 0.65941 0.25837 0.208025 
6 1 -234.389 -244.613 492.821 0.33106 0.180879 0.821109 0.428324 
7 1 -6.57507 -244.05 486.338 0.522937 0.389128 0.332229 0.681719 
5 1 494.633 -248.83 496.36 0.833709 0.116956 0.480487 0.24573 
11 1 6.55632 -3.42562 495.739 0.0108301 0.699145 0.705944 0.11279 
9 1 498.841 -17.2371 499.6 0.39206 0.107016 0.386025 0.828143 
14 1 -243.268 255.726 498.161 0.390184 0.385968 0.642465 0.534812 
1 1 -499.48 495.962 -499.426 0.792807 0.0923936 0.31957 0.510682 
3 1 -1.80201 496.372 -499.379 0.419032 0.661826 0.436906 0.442167 
4 1 249.129 493.879 492.2 0.86698 0.284948 0.213197 0.348851 
ITEM: TIMESTEP
40000
ITEM: NUMBER OF ATOMS
55
ITEM: BOX BOUNDS pp pp pp
-5.0000000000000000e+02 5.0000000000000000e+02
-5.0000000000000000e+02 5.0000000000000000e+02
-5.0000000000000000e+02 5.0000000000000000e+02
ITEM: ATOMS id type x y z c_q[1] c_q[2] c_q[3] c_q[4] 
10 1 -244.307 -7.62604 -493.381 0.805344 -0.0202353 0.157228 0.571218 
12 1 247.644 9.3733 -494.782 0.198468 0.533737 0.487281 0.662037 
13 1 -496.68 242.007 -496.061 0.618199 0.234182 0.177277 0.729083 
15 1 10.3953 248.925 -498.382 0.585083 0.679468 0.431302 0.0998964 
1 1 -496.436 497.686 -499.246 0.781477 0.153982 0.317747 0.514412 
2 1 -246.326 491.802 -493.257 0.66226 0.156811 0.638679 0.359042 
3 1 -5.75181 493.711 -496.747 0.429837 0.645937 0.428458 0.463065 
19 1 8.94277 -490.548 -258.37 0.524027 0.502418 0.505526 0.466278 
20 1 244.107 -498.828 -250.984 0.386469 0.552808 0.685353 0.274473 
21 1 -497.501 -249.002 -249.298 0.577768 0.582501 0.212335 0.53084 
22 1 -243.351 -248.022 -254.766 0.553331 0.766633 0.0349081 0.323851 
23 1 2.38948 -260.883 -246.073 0.597785 0.138299 0.41878 0.66944 
24 1 243.604 -251.709 -251.521 0.0807286 0.140766 0.982998 0.0859244 
26 1 -251.845 -2.66937 -250.359 0.312718 -0.0369447 0.678502 0.663685 
27 1 8.51582 -0.704542 -254.632 0.095029 0.160614 0.520994 0.832909 
28 1 256.141 -4.56785 -243.665 0.489649 0.302512 0.162515 0.801448 
25 1 -498.068 9.8359 -250.165 0.61781 0.558378 0.492141 0.253618 
29 1 -495.271 252.444 -254.539 0.595127 0.377239 0.709587 0.00112299 
30 1 -248.777 254.316 -254.768 0.654519 0.670311 0.205338 0.283063 
31 1 -2.98535 256.628 -249.654 0.240941 0.596416 0.453914 0.616602 
32 1 246.414 249.688 -244.703 0.612007 0.500713 0.316543 0.523961 
17 1 -490.903 -499.771 -251.748 0.552345 0.574408 0.0892669 0.597496 
18 1 -254.96 497.406 -254.058 0.935347 0.300549 0.100282 0.157288 
37 1 -499.725 -247.998 -6.57284 0.590078 0.623185 0.410903 0.307584 
39 1 5.18303 -255.102 -13.1069 0.411813 0.0420417 0.575305 0.705455 
40 1 245.248 -251.6 -5.9357 0.764756 0.188684 0.611355 0.0760944 
43 1 1.53284 4.85296 -2.78532 0.585869 0.741034 0.201135 0.259174 
46 1 -248.608 252.629 -7.63899 0.517694 0.58377 0.55397 0.290384 
47 1 -5.52756 254.611 -5.18827 0.381177 0.284126 0.603346 0.640273 
45 1 491.714 246.082 -3.55126 0.418158 0.364584 0.784461 0.277206 
33 1 -487.37 499.142 -2.41383 0.0194284 0.678061 0.701373 0.218931 
34 1 -244.581 493.054 -11.8926 0.852546 0.487307 0.038238 0.185029 
35 1 -9.56774 -499.798 -4.25445 0.391857 0.717953 0.361913 0.447224 
36 1 242.655 498.243 -6.8606 0.372966 0.0658935 0.421368 0.824016 
38 1 -250.458 -257.4 1.66442 0.662858 0.642527 0.192067 0.332999 
44 1 254.105 -3.08627 0.0436014 0.742696 0.222182 0.334182 0.536059 
41 1 494.106 -3.17236 4.43307 0.714557 0.165366 0.670337 0.112746 
42 1 -256.931 6.89352 7.58611 0.27461 0.731258 0.410999 0.470033 
48 1 252.909 248.723 1.71846 0.327388 0.576971 0.687748 0.29483 
50 1 -247.534 -497.935 253.858 0.645577 0.319283 0.349019 0.599562 
51 1 2.75915 -492.131 252.644 0.353901 0.0937565 0.762784 0.533033 
53 1 -496.48 -240.759 247.954 0.295033 0.836849 0.457185 -0.0601776 
54 1 -253.377 -259.137 247.558 0.252846 0.361569 0.514301 0.735412 
55 1 -3.66644 -238.943 260.473 0.00309019 0.589364 0.46899 0.657791 
49 1 -492.676 496.194 260.851 0.672623 0.28958 0.671249 0.114657 
52 1 248.348 497.152 241.673 0.667176 0.622146 0.314378 0.262635 
6 1 -234.28 -246.473 498.465 0.341597 0.169374 0.806612 0.451664 
7 1 -3.11798 -239.837 482.142 0.537065 0.360625 0.307642 0.697759 
8 1 255.063 -232.588 -499.775 -0.0294835 0.0996076 0.61369 0.782684 
5 1 495.413 -252.462 495.558 0.801832 0.0794946 0.511821 0.29797 
9 1 -496.056 -15.755 496.956 0.408781 0.0966606 0.457203 0.783913 
11 1 6.115 -1.56073 497.19 0.00446299 0.643975 0.759535 0.0915606 
14 1 -241.706 253.9 498.325 0.359081 0.37825 0.62584 0.579924 
16 1 249.994 261.573 495.262 0.966255 0.196948 0.14572 0.0795549 
4 1 244.512 485.218 493.77 0.872505 0.224802 0.269916 0.339623 
ITEM: TIMESTEP
50000
ITEM: NUMBER OF ATOMS
55
ITEM: BOX BOUNDS pp pp pp
-5.0000000000000000e+02 5.0000000000000000e+02
-5.0000000000000000e+02 5.0000000000000000e+02
-5.0000000000000000e+02 5.0000000000000000e+02
ITEM: ATOMS id type x y z c_q[1] c_q[2] c_q[3] c_q[4] 
10 1 -240.688 -6.5976 -494.977 0.801839 -0.0134475 0.137982 0.581235 
12 1 245.715 12.9162 -490.041 0.201691 0.548416 0.483577 0.651701 
13 1 -497.007 235.384 -498.963 0.598935 0.199246 0.14059 0.762766 
1 1 -494.516 492.812 -499.173 0.774677 0.169498 0.329705 0.51229 
2 1 -247.697 489.409 -491.548 0.670022 0.139322 0.636756 0.355249 
3 1 -5.78032 494.866 -491.264 0.420668 0.649832 0.40002 0.490653 
17 1 -492.326 499.17 -254.244 0.550587 0.608456 0.114459 0.559942 
19 1 16.4075 -490.636 -256.053 0.519712 0.478637 0.539553 0.457917 
20 1 240.98 -496.984 -249.921 0.440494 0.502908 0.700009 0.251069 
21 1 -499.606 -254.589 -249.642 0.566295 0.572067 0.250828 0.537712 
22 1 -249.047 -245.774 -254.248 0.568806 0.760712 0.075406 0.303466 
23 1 1.27292 -259.84 -248.585 0.571433 0.139534 0.410986 0.696481 
24 1 245.974 -250.598 -250.77 0.0877159 0.147824 0.982256 0.075013 
26 1 -253.337 -2.31596 -250.79 0.344585 -0.0626688 0.637052 0.686657 
25 1 499.58 9.06688 -252.532 0.635469 0.543151 0.479059 0.267709 
27 1 9.83177 -0.914656 -252.729 0.0890473 0.192673 0.520645 0.826969 
28 1 254.492 -0.0737619 -241.824 0.472512 0.306371 0.1552 0.811654 
29 1 -494.264 253.993 -256.355 0.586061 0.31788 0.745304 0.00258478 
30 1 -245.247 261.68 -250.916 0.645648 0.662911 0.194376 0.325433 
31 1 -7.01744 266.381 -246.932 0.260433 0.575689 0.443916 0.63537 
32 1 248.353 245.464 -246.441 0.592382 0.500054 0.302591 0.554498 
18 1 -255.744 493.195 -255.712 0.941788 0.279549 0.0699653 0.173185 
33 1 -490.097 -499.597 -3.88611 0.0291672 0.677747 0.69224 0.246195 
37 1 -499.505 -246.718 -2.97219 0.596793 0.638931 0.381128 0.300577 
39 1 9.49455 -255.952 -16.3764 0.409108 0.0656163 0.573462 0.706729 
40 1 239.785 -254.505 -7.37629 0.744022 0.146477 0.646941 0.0802647 
43 1 -2.45279 5.33309 -1.64759 0.583893 0.718077 0.233964 0.297817 
46 1 -253.119 248.48 -6.37347 0.507586 0.554403 0.566199 0.33825 
47 1 -2.67645 253.033 -5.61873 0.418587 0.260491 0.572653 0.654979 
45 1 499.178 245.852 -0.531925 0.414001 0.413841 0.76834 0.258827 
34 1 -248.037 493.398 -11.0836 0.872636 0.454015 0.0437986 0.174522 
35 1 -10.8406 499.046 -9.16315 0.413664 0.751153 0.31978 0.40298 
36 1 239.424 488.003 -4.92471 0.427514 0.0945593 0.421735 0.793996 
38 1 -247.331 -255.018 2.02956 0.668834 0.618504 0.242791 0.333415 
44 1 249.376 -4.3386 1.55753 0.745224 0.213734 0.34257 0.530664 
41 1 499.158 -5.70538 6.89526 0.705988 0.249921 0.658017 0.0783205 
42 1 -255.53 10.2807 8.59675 0.254683 0.701689 0.447154 0.49277 
48 1 249.436 251.47 2.47664 0.271879 0.654986 0.663868 0.237391 
50 1 -249.765 -498.738 254.082 0.670433 0.305655 0.345205 0.581316 
51 1 6.99163 -497.711 255.269 0.330265 0.0911015 0.762182 0.549276 
53 1 -498.156 -242.374 249.266 0.323673 0.802318 0.49748 -0.0635253 
54 1 -254.416 -263.369 247.287 0.228808 0.372781 0.5775 0.689329 
55 1 -6.6864 -236.408 263.929 0.0495577 0.587636 0.445347 0.673717 
49 1 -495.211 496.216 261.72 0.722027 0.28149 0.626831 0.0807579 
52 1 249.137 493.596 241.575 0.658813 0.626987 0.327814 0.255715 
6 1 -236.232 -251.624 -499.16 0.339459 0.164535 0.806916 0.454513 
7 1 -2.16174 -240.116 483.781 0.547428 0.355619 0.358817 0.667164 
8 1 258.8 -229.777 497.464 -0.0255339 0.0676886 0.633528 0.77033 
5 1 491.293 -252.479 491.226 0.809084 0.111037 0.517549 0.255338 
9 1 -497.752 -10.0891 498.261 0.380454 0.132617 0.462089 0.790026 
11 1 3.61487 -0.992936 493.836 0.0242132 0.668369 0.731977 0.130027 
14 1 -244.445 254.897 498.342 0.391334 0.382709 0.600664 0.582747 
15 1 8.31895 250.991 497.442 0.573775 0.707917 0.389596 0.133607 
16 1 252.169 260.778 495.868 0.959448 0.188302 0.162097 0.13314 
4 1 238.998 486.917 499.542 0.869354 0.239907 0.29687 0.313904 
ITEM: TIMESTEP
60000
ITEM: NUMBER OF ATOMS
55
ITEM: BOX BOUNDS pp pp pp
-5.0000000000000000e+02 5.0000000000000000e+02
-5.0000000000000000e+02 5.0000000000000000e+02
-5.0000000000000000e+02 5.0000000000000000e+02
ITEM: ATOMS id type x y z c_q[1] c_q[2] c_q[3] c_q[4] 
6 1 -238.449 -246.499 -495.017 0.411691 0.15874 0.78489 0.43504 
10 1 -237.142 -4.10403 -492.736 0.817366 -0.00495261 0.190171 0.543804 
12 1 245.541 17.8245 -491.025 0.218181 0.554466 0.447527 0.666846 
14 1 -240.043 256.493 -497.178 0.409651 0.430804 0.596193 0.539581 
2 1 -250.412 488.48 -489.107 0.688563 0.152888 0.60936 0.362197 
3 1 -2.87379 488.164 -495.99 0.422075 0.62054 0.415274 0.514131 
17 1 -490.003 -497.099 -257.832 0.546328 0.616499 0.12076 0.55396 
19 1 9.31694 -495.104 -258.567 0.47882 0.498799 0.572605 0.440517 
20 1 240.011 -498.244 -258.277 0.425659 0.51949 0.69413 0.259091 
22 1 -247.844 -247.842 -257.041 0.541583 0.781015 0.0757892 0.301596 
23 1 2.69717 -254.438 -246.999 0.567105 0.141347 0.401556 0.705099 
24 1 246.716 -251.69 -246.65 0.159204 0.192026 0.965888 0.0695672 
21 1 496.48 -256.085 -245.805 0.587839 0.599437 0.196456 0.506484 
27 1 6.14946 -0.923533 -251.981 0.0888006 0.163254 0.540021 0.820877 
28 1 254.554 -4.56971 -241.054 0.49389 0.267872 0.111512 0.819684 
25 1 -500.187 7.70815 -256.425 0.67691 0.512747 0.456284 0.265874 
26 1 -257.947 2.90366 -250.566 0.366929 -0.0278902 0.647218 0.667603 
29 1 -496.694 251.712 -254.39 0.634708 0.30977 0.707433 0.0269749 
30 1 -246.241 260.354 -256.308 0.615519 0.683298 0.207967 0.333151 
31 1 -12.3606 264.492 -245.201 0.237492 0.531067 0.507777 0.635396 
32 1 248.913 243.585 -245.576 0.638823 0.475542 0.27031 0.541015 
18 1 -255.504 494.137 -252.816 0.934508 0.284585 0.0951846 0.19143 
33 1 -494.355 -498.524 -5.00009 0.00779549 0.625843 0.740133 0.245891 
37 1 -496.381 -245.553 -1.48504 0.584485 0.639956 0.399001 0.299385 
39 1 0.143931 -257.477 -20.346 0.397446 0.0476844 0.570457 0.717176 
40 1 240.186 -256.426 -9.76442 0.760543 0.114192 0.636331 0.0601509 
46 1 -252.197 250.495 -4.03157 0.488223 0.581871 0.560538 0.329941 
47 1 -3.36178 253.752 -5.38939 0.393909 0.266638 0.583157 0.658535 
45 1 495.508 245.715 -6.18043 0.406575 0.459024 0.755059 0.23212 
34 1 -248.874 492.173 -12.3744 0.860302 0.477672 0.0581913 0.168294 
35 1 -9.78437 500.013 -11.0617 0.478869 0.756476 0.276245 0.349452 
36 1 239.255 488.133 -10.5452 0.456631 0.0503654 0.367639 0.808575 
38 1 -247.941 -253.547 2.51761 0.667109 0.604088 0.254229 0.354134 
43 1 -2.48486 -3.86858 4.04152 0.594003 0.682387 0.256934 0.339842 
44 1 252.898 -9.56008 -0.590307 0.753637 0.223109 0.319292 0.52944 
41 1 494.918 -7.11224 7.07032 0.678437 0.2873 0.67144 0.0796953 
42 1 -256.887 3.0274 13.3963 0.253277 0.689338 0.463284 0.496016 
48 1 249.041 254.2 1.64966 0.2561 0.646609 0.676742 0.241516 
50 1 -250.069 -499.886 252.14 0.634001 0.273402 0.343615 0.636571 
51 1 10.2848 -496.353 256.426 0.290643 0.0730782 0.75554 0.582534 
53 1 -496.715 -242.114 253.026 0.313714 0.821219 0.474678 -0.0431753 
54 1 -252.94 -262.581 249.918 0.231317 0.382787 0.573282 0.686524 
55 1 -6.38297 -234.032 266.9 0.0512708 0.596853 0.431203 0.674687 
49 1 -494.591 -499.08 264.321 0.720619 0.274224 0.629445 0.0964835 
52 1 248.991 492.798 237.74 0.6248 0.633189 0.368005 0.270684 
7 1 -3.65547 -242.008 480.296 0.522257 0.416492 0.348145 0.657706 
8 1 260.805 -228.333 497.681 -0.0524696 0.0552861 0.636067 0.76786 
5 1 490.203 -248.201 487.941 0.804015 0.0662092 0.512858 0.293519 
9 1 -499.268 -9.62671 494.648 0.362003 0.112958 0.486602 0.787028 
11 1 0.535155 -5.11012 490.373 0.00191756 0.670757 0.73256 0.115915 
13 1 -495.481 232.269 498.889 0.607128 0.177394 0.129186 0.7637 
15 1 11.9025 255.255 493.061 0.562974 0.741071 0.343652 0.125608 
16 1 249.38 265.701 494.015 0.958562 0.163902 0.167589 0.161892 
1 1 -493.229 491.822 499.944 0.789322 0.184414 0.350894 0.468866 
4 1 239.537 488.671 496.011 0.877304 0.278518 0.284854 0.267626 
ITEM: TIMESTEP
70000
ITEM: NUMBER OF ATOMS
55
ITEM: BOX BOUNDS pp pp pp
-5.0000000000000000e+02 5.0000000000000000e+02
-5.0000000000000000e+02 5.0000000000000000e+02
-5.0000000000000000e+02 5.0000000000000000e+02
ITEM: ATOMS id type x y z c_q[1] c_q[2] c_q[3] c_q[4] 
6 1 -240.882 -248.257 -497.616 0.383066 0.147535 0.776029 0.478824 
10 1 -235.384 -1.6064 -494.965 0.842834 0.0133322 0.223478 0.489399 
12 1 249.1 16.1667 -490.184 0.204781 0.611811 0.447447 0.619309 
14 1 -240.763 258.28 -495.51 0.438594 0.43817 0.570668 0.538499 
2 1 -247.226 492.867 -490.25 0.663682 0.166811 0.642021 0.345701 
3 1 -1.91885 487.231 -491.037 0.440899 0.657302 0.360547 0.493527 
17 1 -487.45 -495.042 -257.591 0.535044 0.618799 0.140634 0.557708 
19 1 9.84318 -493.93 -257.57 0.497611 0.497689 0.577487 0.413761 
20 1 242.653 -493.676 -261.569 0.453775 0.478095 0.707221 0.255639 
22 1 -244.875 -245.816 -259.728 0.543099 0.784224 0.0683176 0.29218 
23 1 1.00383 -255.817 -248.312 0.543339 0.131377 0.406997 0.72241 
24 1 246.406 -257.64 -247.343 0.163248 0.20443 0.964864 0.0243969 
21 1 494.36 -253.976 -252.662 0.569868 0.63739 0.189777 0.482669 
28 1 253.727 -4.15657 -243.595 0.534465 0.264918 0.0886142 0.797693 
26 1 -256.945 4.89779 -251.071 0.403226 -0.0397054 0.646575 0.646354 
27 1 6.39691 1.632 -248.938 0.101206 0.230897 0.516352 0.818428 
25 1 499.976 7.09116 -254.465 0.665778 0.513443 0.472659 0.264026 
29 1 -491.339 243.147 -250.566 0.669924 0.236856 0.697439 0.0931652 
30 1 -247.946 267.227 -260.172 0.591772 0.711657 0.234082 0.297584 
31 1 -8.50299 269.394 -241.064 0.252135 0.50764 0.508076 0.648527 
32 1 250.811 242.763 -241.282 0.645418 0.45377 0.268147 0.552834 
18 1 -258.893 490.596 -251.96 0.935139 0.257448 0.0990806 0.222305 
33 1 -496.324 -498.055 -4.35592 0.0506896 0.642737 0.720561 0.255169 
37 1 -494.971 -250.101 -5.85097 0.589863 0.610891 0.43822 0.294681 
39 1 4.22334 -259.314 -21.2765 0.377801 0.0890638 0.560742 0.73137 
40 1 236.497 -253.639 -6.09485 0.752359 0.155258 0.634201 0.0874032 
46 1 -254.686 246.879 -1.8047 0.490208 0.57202 0.561024 0.343134 
47 1 -4.10227 253.257 -8.11027 0.429483 0.257248 0.571221 0.650442 
45 1 496.574 247.305 -2.54212 0.42771 0.429074 0.733819 0.307359 
34 1 -249.148 497.078 -12.4461 0.862646 0.469247 0.0400165 0.184519 
35 1 -9.94923 499.39 -6.59851 0.467917 0.780892 0.258988 0.322779 
36 1 237.241 485.936 -11.4254 0.457558 0.0715572 0.374237 0.80341 
38 1 -249.518 -254.159 4.35191 0.669713 0.590306 0.254588 0.371765 
43 1 -2.68415 -6.25554 8.40858 0.586956 0.710989 0.21284 0.323537 
44 1 251.504 -10.9165 2.83674 0.75152 0.184317 0.279899 0.568244 
41 1 491.35 -6.00055 13.7787 0.712191 0.243258 0.653906 0.0775588 
42 1 -258.159 2.02237 7.47101 0.247217 0.683885 0.4652 0.504752 
48 1 251.45 253.21 1.57337 0.222622 0.646748 0.698178 0.211431 
49 1 -494.211 -495.987 259.587 0.720072 0.224172 0.643629 0.130326 
51 1 11.4808 -495.592 255.298 0.342022 0.0629613 0.767839 0.538033 