ITEM: TIMESTEP
0
ITEM: NUMBER OF ATOMS
15
ITEM: BOX BOUNDS pp pp pp
-5.0000000000000000e+02 5.0000000000000000e+02
-5.0000000000000000e+02 5.0000000000000000e+02
-5.0000000000000000e+02 5.0000000000000000e+02
ITEM: ATOMS id type x y z c_q[1] c_q[2] c_q[3] c_q[4] 
1 1 -500 -500 -500 0.676558 0.54615 0.229939 0.437169 
2 1 -166.667 -500 -500 0.587204 0.305271 0.494854 0.563135 
3 1 166.667 -500 -500 0.202829 0.652348 0.351421 0.64016 
4 1 -500 -166.667 -500 0.014288 0.736284 0.604647 0.303453 
5 1 -166.667 -166.667 -500 0.783438 0.462665 0.01886 0.4145 
6 1 166.667 -166.667 -500 0.059683 0.712044 0.337119 0.613011 
7 1 -500 166.667 -500 0.065692 0.848765 0.385851 0.355531 
8 1 -166.667 166.667 -500 0.149495 0.166288 0.366318 0.903222 
9 1 166.667 166.667 -500 0.572365 0.141281 0.415226 0.692839 
10 1 -500 -500 -166.667 0.065092 0.604725 0.249476 0.753546 
11 1 -166.667 -500 -166.667 0.544658 0.177591 0.722368 0.38729 
12 1 166.667 -500 -166.667 0.741588 0.51802 0.200985 0.375908 
13 1 -500 -166.667 -166.667 0.006597 0.794863 0.442468 0.415175 
14 1 -166.667 -166.667 -166.667 0.564098 0.150789 0.176591 0.792384 
15 1 166.667 -166.667 -166.667 0.413932 0.613755 0.125629 0.660441 
ITEM: TIMESTEP
10000
ITEM: NUMBER OF ATOMS
15
ITEM: BOX BOUNDS pp pp pp
-5.0000000000000000e+02 5.0000000000000000e+02
-5.0000000000000000e+02 5.0000000000000000e+02
-5.0000000000000000e+02 5.0000000000000000e+02
ITEM: ATOMS id type x y z c_q[1] c_q[2] c_q[3] c_q[4] 
5 1 -168.342 -162.649 -496.751 0.790378 0.427975 -0.0139424 0.438116 
2 1 -164.165 498.449 -495.936 0.541407 0.309567 0.524717 0.579413 
12 1 172.06 -499.183 -169.602 0.730054 0.568014 0.163782 0.342866 
14 1 -170.77 -163.055 -167.423 0.556931 0.122809 0.18044 0.801366 
10 1 498.358 499.787 -166.784 0.0754823 0.634899 0.205955 0.740802 
11 1 -172.452 -498.176 -161.889 0.582537 0.177636 0.698764 0.375266 
13 1 499.531 -166.723 -160.933 -0.0473933 0.802627 0.47345 0.359707 
15 1 166.846 -164.591 -161.182 0.417057 0.594459 0.11335 0.67811 
6 1 168.111 -172.064 496.866 0.0351614 0.748809 0.338371 0.568817 
4 1 -494.862 -167.008 499.297 -0.0089334 0.728633 0.629234 0.27033 
7 1 -494.763 165.486 496.41 0.102954 0.847639 0.402127 0.330458 
8 1 -159.19 164.044 -499.006 0.198568 0.138187 0.333859 0.911051 
9 1 168.441 171.089 496.775 0.61103 0.125358 0.394023 0.675036 
3 1 170.487 496.409 -500.238 0.229738 0.663126 0.320471 0.636225 
1 1 498.607 496.843 496.204 0.66069 0.562334 0.263616 0.421636 
ITEM: TIMESTEP
20000
ITEM: NUMBER OF ATOMS
15
ITEM: BOX BOUNDS pp pp pp
-5.0000000000000000e+02 5.0000000000000000e+02
-5.0000000000000000e+02 5.0000000000000000e+02
-5.0000000000000000e+02 5.0000000000000000e+02
ITEM: ATOMS id type x y z c_q[1] c_q[2] c_q[3] c_q[4] 
6 1 167.34 -170.461 -498.209 -0.0243031 0.74846 0.345911 0.565298 
5 1 -167.579 -162.914 -491.599 0.768498 0.478957 -0.031056 0.423139 
8 1 -157.104 162.879 -496.776 0.163554 0.132217 0.324725 0.922129 
2 1 -165.257 -500.078 -492.498 0.514171 0.289215 0.555506 0.586 
14 1 -171.057 -163.536 -170.084 0.545235 0.151568 0.178663 0.804876 
10 1 -499.044 -499.99 -167.005 0.0110992 0.65193 0.188527 0.734385 
12 1 168.221 498.498 -173.497 0.734402 0.565245 0.177851 0.330938 
11 1 -174.181 -496.293 -161.573 0.564822 0.138117 0.694928 0.423055 
15 1 173.682 -171.144 -162.395 0.398249 0.611411 0.107424 0.675303 
13 1 495.773 -168.874 -162.196 -0.0370013 0.783021 0.493296 0.377052 
3 1 167.901 -498.756 495.927 0.225092 0.679094 0.325644 0.61816 
4 1 -494.742 -167.389 -499.908 -0.012587 0.675863 0.671234 0.304131 
7 1 -496.717 162.189 496.775 0.115031 0.848126 0.414402 0.309387 
9 1 170.083 175.664 495.617 0.649242 0.0974006 0.375462 0.654237 
1 1 494.004 496.943 491.929 0.653321 0.573555 0.282169 0.405694 
ITEM: TIMESTEP
30000
ITEM: NUMBER OF ATOMS
15
ITEM: BOX BOUNDS pp pp pp
-5.0000000000000000e+02 5.0000000000000000e+02
-5.0000000000000000e+02 5.0000000000000000e+02
-5.0000000000000000e+02 5.0000000000000000e+02
ITEM: ATOMS id type x y z c_q[1] c_q[2] c_q[3] c_q[4] 
2 1 -163.358 -494.724 -493.839 0.539577 0.290262 0.56399 0.553642 
6 1 168.305 -171.816 -494.047 -0.0190525 0.706158 0.353518 0.613191 
5 1 -170.906 -165.318 -492.439 0.784904 0.414959 0.00728054 0.460089 
7 1 -496.764 159.98 -498.233 0.102483 0.84398 0.407766 0.333051 
8 1 -159.155 166.569 -493.557 0.156122 0.159942 0.309065 0.924405 
12 1 174.271 -494.716 -172.228 0.743946 0.547869 0.159241 0.347888 
14 1 -172.75 -161.911 -176.057 0.54586 0.159507 0.168319 0.805148 
10 1 -494.967 -499.395 -164.788 -0.00037369 0.62964 0.184951 0.754551 
11 1 -175.199 -497.344 -160.902 0.559987 0.128043 0.704158 0.41735 
15 1 179.403 -173.531 -161.005 0.372261 0.667938 0.0680871 0.640816 
13 1 497.064 -171.576 -161.266 -0.0535181 0.786456 0.47013 0.396989 
4 1 -493.408 -165.118 497.024 -0.0578125 0.669753 0.687078 0.275703 
9 1 174.15 175.438 493.92 0.62382 0.146118 0.382646 0.665643 
3 1 165.565 497.53 495.302 0.243916 0.683112 0.303367 0.617925 
1 1 490.437 495.061 491.441 0.666408 0.537965 0.268087 0.441161 
ITEM: TIMESTEP
40000
ITEM: NUMBER OF ATOMS
15
ITEM: BOX BOUNDS pp pp pp
-5.0000000000000000e+02 5.0000000000000000e+02
-5.0000000000000000e+02 5.0000000000000000e+02
-5.0000000000000000e+02 5.0000000000000000e+02
ITEM: ATOMS id type x y z c_q[1] c_q[2] c_q[3] c_q[4] 
2 1 -164.868 -496.435 -494.941 0.568217 0.283978 0.536 0.556049 
6 1 160.6 -174.186 -496.359 -0.00335543 0.695047 0.358792 0.623031 
5 1 -171.816 -164.454 -495.015 0.812924 0.366337 -0.0114138 0.452573 
7 1 -496.707 161.465 -499.79 0.055429 0.833696 0.425404 0.347722 
8 1 -162.153 169.575 -491.964 0.160663 0.108862 0.305594 0.932174 
14 1 -172.421 -164.69 -174.779 0.593213 0.141863 0.156141 0.776913 
11 1 -181.647 -492.588 -160.922 0.549647 0.112293 0.696167 0.447917 
12 1 175.425 -488.703 -164.837 0.721719 0.573719 0.187683 0.338738 
15 1 179.66 -175.204 -158.431 0.360482 0.659598 0.0887944 0.653528 
13 1 -499.362 -168.164 -163.477 0.0184851 0.797569 0.451804 0.399267 
10 1 499.409 497.073 -163.601 0.00248708 0.641455 0.144367 0.75345 
4 1 -495.513 -163.802 497.637 -0.0993624 0.674602 0.673837 0.284575 
9 1 169.427 173.604 491.154 0.619125 0.221948 0.378825 0.651087 
3 1 164.397 491.34 489.681 0.237179 0.713358 0.273763 0.599934 
1 1 488.942 490.365 488.179 0.695671 0.537501 0.281285 0.384725 
ITEM: TIMESTEP
50000
ITEM: NUMBER OF ATOMS
15
ITEM: BOX BOUNDS pp pp pp
-5.0000000000000000e+02 5.0000000000000000e+02
-5.0000000000000000e+02 5.0000000000000000e+02
-5.0000000000000000e+02 5.0000000000000000e+02
ITEM: ATOMS id type x y z c_q[1] c_q[2] c_q[3] c_q[4] 
2 1 -170.194 -493.872 -493.272 0.543282 0.327643 0.546688 0.546467 
6 1 157.647 -175.023 -496.507 0.0290022 0.733193 0.357728 0.577597 
5 1 -169.042 -164.725 -492.291 0.786662 0.433228 0.0250994 0.439143 
7 1 -496.643 156.353 -488.956 0.019249 0.830543 0.441616 0.338826 
8 1 -163.545 164.191 -490.953 0.148873 0.110453 0.307515 0.933312 
14 1 -173.955 -165.879 -176.867 0.542586 0.19852 0.204796 0.790094 
11 1 -186.664 -492.914 -160.213 0.561467 0.0986287 0.722787 0.390648 
12 1 174.493 -488.843 -165.665 0.727961 0.582094 0.134318 0.336449 
15 1 180.678 -176.435 -162.22 0.323837 0.65086 0.0790359 0.682103 
13 1 -492.587 -165.845 -164.539 -0.032676 0.810959 0.476863 0.33746 
10 1 498.295 497.819 -157.894 -0.0537516 0.629885 0.138355 0.762374 
4 1 -495.297 -164.566 491.337 -0.11944 0.613082 0.723757 0.293325 
9 1 170.134 175.925 490.413 0.563334 0.243697 0.420281 0.668304 
3 1 164.834 490.866 494.838 0.268299 0.693915 0.272281 0.610213 
1 1 489.214 492.721 487.527 0.657522 0.539187 0.273151 0.449813 
ITEM: TIMESTEP
60000
ITEM: NUMBER OF ATOMS
15
ITEM: BOX BOUNDS pp pp pp
-5.0000000000000000e+02 5.0000000000000000e+02
-5.0000000000000000e+02 5.0000000000000000e+02
-5.0000000000000000e+02 5.0000000000000000e+02
ITEM: ATOMS id type x y z c_q[1] c_q[2] c_q[3] c_q[4] 
2 1 -177.375 -490.968 -492.547 0.579789 0.322811 0.538914 0.518854 
5 1 -166.809 -166.945 -498.729 0.803599 0.441541 0.0369433 0.397373 
6 1 157.406 -170.333 -499.03 0.0285218 0.743565 0.33151 0.579998 
7 1 -496.015 156.391 -490.326 -0.0563471 0.852158 0.420515 0.306297 
8 1 -165.071 166.842 -490.689 0.15124 0.0452265 0.260356 0.952521 
12 1 178.822 -486.363 -167.868 0.720656 0.605515 0.130517 0.311403 
13 1 -495.592 -163.282 -166.76 -0.0654749 0.80381 0.512647 0.294612 
14 1 -183.165 -161.813 -179.196 0.502888 0.200281 0.187515 0.819652 
11 1 -192.425 -489.929 -159.709 0.485048 0.117431 0.752537 0.429683 
15 1 182.596 -181.187 -160.91 0.359984 0.592483 0.0484717 0.719046 
10 1 499.534 497.13 -159.436 -0.0585184 0.595266 0.14142 0.788818 
4 1 -495.021 -162.467 497.761 -0.124161 0.604701 0.723365 0.309296 
9 1 169.034 173.525 489.936 0.515959 0.264765 0.443645 0.683275 
3 1 161.751 490.861 496.98 0.221677 0.698083 0.326769 0.597294 
1 1 488.404 491.343 484.12 0.667784 0.541551 0.283243 0.424924 
ITEM: TIMESTEP
70000
ITEM: NUMBER OF ATOMS
15
ITEM: BOX BOUNDS pp pp pp
-5.0000000000000000e+02 5.0000000000000000e+02
-5.0000000000000000e+02 5.0000000000000000e+02
-5.0000000000000000e+02 5.0000000000000000e+02
ITEM: ATOMS id type x y z c_q[1] c_q[2] c_q[3] c_q[4] 
2 1 -181.057 -492.121 -492.628 0.579613 0.311102 0.564538 0.498559 
5 1 -167.762 -165.998 -497.183 0.828502 0.42224 0.0214255 0.367205 
4 1 498.8 -160.247 499.965 -0.165263 0.610361 0.7207 0.284146 
7 1 -496.041 156.213 -488.44 -0.022285 0.817334 0.487288 0.306625 
8 1 -168.951 168.94 -493.488 0.151614 0.0559215 0.268269 0.949693 
13 1 -493.793 -167.641 -169.591 -0.0825698 0.830481 0.488889 0.253911 
14 1 -176.976 -164.07 -175.693 0.518831 0.198689 0.193073 0.80874 
11 1 -194.871 -483.94 -153.902 0.488629 0.171353 0.748693 0.413929 
12 1 177.938 -486.412 -167.22 0.742812 0.587175 0.141459 0.28887 
15 1 179.352 -174.675 -165.413 0.406363 0.567773 -0.002016 0.71589 
10 1 496.084 496.956 -164.321 -0.0489322 0.63942 0.140977 0.754237 
6 1 160.534 -171.235 499.029 0.0256037 0.757746 0.351771 0.54902 
9 1 172.928 172.764 489.943 0.467107 0.17428 0.435045 0.749782 
3 1 161.791 483.914 500.013 0.229959 0.678556 0.323259 0.61821 
1 1 486.366 496.489 489.312 0.692704 0.54955 0.267524 0.382867 
ITEM: TIMESTEP
80000
ITEM: NUMBER OF ATOMS
15
ITEM: BOX BOUNDS pp pp pp
-5.0000000000000000e+02 5.0000000000000000e+02
-5.0000000000000000e+02 5.0000000000000000e+02
-5.0000000000000000e+02 5.0000000000000000e+02
ITEM: ATOMS id type x y z c_q[1] c_q[2] c_q[3] c_q[4] 
2 1 -180.952 -490.815 -493.199 0.583217 0.319287 0.573966 0.477992 
6 1 155.999 -175.285 -498.015 0.0544409 0.758235 0.337601 0.555105 
5 1 -164.275 -165.319 -492.753 0.819611 0.454452 0.0486231 0.345466 
4 1 493.602 -154.5 -498.717 -0.202339 0.621625 0.686164 0.319094 
7 1 -496.102 156.995 -485.334 -0.0121361 0.810751 0.484872 0.327772 
8 1 -165.264 165.813 -495.858 0.113978 0.074318 0.3074 0.941802 
12 1 175.497 -484.303 -170.18 0.771202 0.560963 0.164362 0.252096 
13 1 -496.172 -168.582 -171.899 -0.0712581 0.813555 0.507991 0.273853 
14 1 -180.367 -164.362 -171.981 0.524269 0.157068 0.186175 0.815972 
11 1 -190.663 -481.493 -148.389 0.500589 0.141975 0.725 0.451253 
15 1 175.553 -175.578 -163.881 0.385709 0.561952 -0.0292173 0.731153 
10 1 493.437 497.743 -165.13 -0.0234976 0.616578 0.109222 0.779327 
9 1 171.166 170.388 489.648 0.454097 0.17926 0.416276 0.767057 
3 1 159.484 483.076 496.654 0.238145 0.65647 0.345695 0.626761 
1 1 485.538 496.102 481.307 0.710076 0.539591 0.260879 0.369562 
ITEM: TIMESTEP
90000
ITEM: NUMBER OF ATOMS
15
ITEM: BOX BOUNDS pp pp pp
-5.0000000000000000e+02 5.0000000000000000e+02
-5.0000000000000000e+02 5.0000000000000000e+02
-5.0000000000000000e+02 5.0000000000000000e+02
ITEM: ATOMS id type x y z c_q[1] c_q[2] c_q[3] c_q[4] 
2 1 -182.818 -492.983 -493.895 0.575611 0.287177 0.601069 0.474254 
5 1 -163.09 -170.445 -496.93 0.817679 0.462285 0.0810554 0.333351 
6 1 156.881 -173.809 -490.718 0.0758604 0.769922 0.294047 0.561249 
4 1 495.054 -153.89 -494.512 -0.170814 0.629197 0.684097 0.327024 
7 1 -498.481 156.76 -484.065 -0.00621064 0.828268 0.479864 0.289247 
8 1 -163.225 166.168 -495.352 0.122246 0.0513743 0.358072 0.92423 
12 1 174.487 -477.123 -178.23 0.768496 0.590821 0.157911 0.188172 
15 1 176.574 -174 -172.137 0.410715 0.550389 -0.0506187 0.725137 
13 1 499.291 -168.783 -171.508 -0.117135 0.816023 0.479419 0.300904 
14 1 -179.838 -159.533 -168.527 0.532764 0.160192 0.173947 0.812554 
10 1 495.209 496.082 -171.45 -0.0717043 0.636167 0.0931794 0.76254 
11 1 -186.755 -477.607 -149.703 0.495014 0.144979 0.738749 0.433811 
9 1 168.206 171.119 491.842 0.432896 0.181787 0.424943 0.773937 
3 1 156.768 479.924 494.201 0.235323 0.632028 0.344734 0.652934 
1 1 479.671 497.882 476.184 0.681772 0.524416 0.297094 0.414621 
ITEM: TIMESTEP
100000
ITEM: NUMBER OF ATOMS
15
ITEM: BOX BOUNDS pp pp pp
-5.0000000000000000e+02 5.0000000000000000e+02
-5.0000000000000000e+02 5.0000000000000000e+02
-5.0000000000000000e+02 5.0000000000000000e+02
ITEM: ATOMS id type x y z c_q[1] c_q[2] c_q[3] c_q[4] 
2 1 -180.421 -492.879 -492.126 0.587666 0.236408 0.586919 0.504268 
5 1 -165.306 -172.273 -495.917 0.811057 0.448733 0.0627407 0.369984 
6 1 157.535 -173.003 -491.873 0.108359 0.753349 0.269974 0.589778 
4 1 495.285 -150.45 -493.136 -0.168474 0.616776 0.698913 0.320507 
7 1 -494.358 154.91 -487.5 -0.0667873 0.847929 0.438039 0.290996 
8 1 -153.439 171.724 -494.807 0.0810934 0.0486864 0.342104 0.934889 
12 1 173.466 -478.002 -183.018 0.786642 0.5838 0.126715 0.155934 
13 1 -498.964 -167.507 -168.752 -0.137968 0.809126 0.492594 0.289192 
15 1 175.533 -170.859 -176.348 0.427998 0.552399 -0.0761508 0.711248 
10 1 489.141 493.008 -169.793 -0.135915 0.61895 0.0762428 0.769815 
11 1 -189.811 -475.433 -153.069 0.497098 0.174516 0.742659 0.413394 
14 1 -178.386 -159.759 -163.504 0.522472 0.130014 0.226814 0.811587 
9 1 171.707 171.123 495.136 0.405846 0.187196 0.419213 0.790258 
3 1 158.031 479.965 492.371 0.278549 0.632604 0.320689 0.647597 
1 1 477.622 499.157 472.711 0.680957 0.520894 0.292594 0.423503 
ITEM: TIMESTEP
110000
ITEM: NUMBER OF ATOMS
15
ITEM: BOX BOUNDS pp pp pp
-5.0000000000000000e+02 5.0000000000000000e+02
-5.0000000000000000e+02 5.0000000000000000e+02
-5.0000000000000000e+02 5.0000000000000000e+02
ITEM: ATOMS id type x y z c_q[1] c_q[2] c_q[3] c_q[4] 
2 1 -179.316 -494.1 -489.665 0.583803 0.234308 0.586242 0.510484 
5 1 -171.431 -174.997 -494.67 0.821721 0.445212 0.0648163 0.3498 
6 1 159.128 -176.329 -489.84 0.108445 0.751665 0.269574 0.592089 
4 1 497.585 -152.489 -499.069 -0.182335 0.573455 0.713068 0.359773 
7 1 -496.747 152.459 -486.296 -0.0596295 0.836798 0.452771 0.302013 
8 1 -149.361 174.459 -498.584 0.0961639 0.0457912 0.3252 0.939628 
12 1 169.725 -480.854 -187.202 0.767872 0.614176 0.139957 0.1165 
13 1 -497.271 -170.91 -173.887 -0.140609 0.785929 0.480201 0.363253 
15 1 183.143 -172.993 -176.223 0.45941 0.569185 -0.0792723 0.677264 
10 1 487.562 491.434 -169.797 -0.143784 0.620308 0.0368237 0.770187 
11 1 -195.84 -476.477 -152.301 0.482944 0.127964 0.752137 0.429744 
14 1 -176.641 -159.025 -163.13 0.514526 0.14068 0.244461 0.80976 
9 1 171.591 170.926 496.945 0.355745 0.232009 0.468717 0.774546 
3 1 158.72 473.421 492.055 0.280459 0.608165 0.375135 0.640899 
1 1 483.991 499.006 467.493 0.68172 0.541235 0.322955 0.371514 
ITEM: TIMESTEP
120000
ITEM: NUMBER OF ATOMS
15
ITEM: BOX BOUNDS pp pp pp
-5.0000000000000000e+02 5.0000000000000000e+02
-5.0000000000000000e+02 5.0000000000000000e+02
-5.0000000000000000e+02 5.0000000000000000e+02
ITEM: ATOMS id type x y z c_q[1] c_q[2] c_q[3] c_q[4] 
2 1 -178.591 -495.674 -485.396 0.575294 0.26003 0.62576 0.458089 
5 1 -168.807 -174.08 -497.885 0.832745 0.454755 0.0757187 0.306593 
6 1 155.809 -174.94 -492.952 0.0830216 0.78513 0.279494 0.546408 
4 1 494.431 -152.099 499.174 -0.235747 0.559646 0.693754 0.387203 
7 1 -499.72 150.064 -489.106 -0.132506 0.817865 0.452885 0.329293 
8 1 -142.109 176.2 -493.185 0.120013 0.0217513 0.373679 0.919504 
12 1 166.471 -484.367 -184.892 0.757199 0.608914 0.15386 0.179448 
13 1 498.232 -168.666 -175.581 -0.130891 0.793213 0.489385 0.337909 
15 1 189.562 -170.376 -176.67 0.462512 0.556301 -0.0497659 0.688574 
10 1 484.923 487.064 -173.194 -0.132452 0.585128 0.0213497 0.799766 
11 1 -194.937 -472.458 -155.172 0.443531 0.116482 0.779035 0.427571 
14 1 -171.644 -157.607 -161.624 0.52304 0.174073 0.248905 0.796351 
1 1 484.441 -499.326 469.683 0.692545 0.54337 0.32557 0.345157 
9 1 169.867 171.133 497.049 0.395001 0.175669 0.470254 0.7694 
3 1 165.177 474.823 494.136 0.255767 0.62426 0.419116 0.607638 
ITEM: TIMESTEP
130000
ITEM: NUMBER OF ATOMS
15
ITEM: BOX BOUNDS pp pp pp
-5.0000000000000000e+02 5.0000000000000000e+02
-5.0000000000000000e+02 5.0000000000000000e+02
-5.0000000000000000e+02 5.0000000000000000e+02
ITEM: ATOMS id type x y z c_q[1] c_q[2] c_q[3] c_q[4] 
2 1 -180.222 -491.773 -484.275 0.551063 0.245773 0.618432 0.503455 
5 1 -166.349 -175.742 -497.332 0.839532 0.467637 0.0888327 0.261938 
6 1 154.374 -177.461 -492.463 0.0686027 0.754828 0.33423 0.560196 
7 1 496.684 146.412 -488.784 -0.147874 0.832919 0.423178 0.324498 
8 1 -147.053 172.117 -492.767 0.122195 -0.0300159 0.380999 0.915973 
12 1 161.149 -476.693 -186.727 0.765944 0.593783 0.173962 0.174611 
15 1 189.142 -167.514 -171.756 0.47891 0.529012 -0.0760363 0.696427 
13 1 496.97 -167.052 -175.654 -0.170758 0.785788 0.47777 0.353717 
14 1 -172.092 -154.805 -167.964 0.537726 0.155666 0.14329 0.816142 
10 1 483.847 482.52 -174.248 -0.150429 0.589201 -0.00527987 0.793842 
11 1 -196.838 -471.883 -155.303 0.462965 0.124493 0.767055 0.426369 
1 1 487.45 -493.525 473.884 0.64636 0.565628 0.344108 0.379306 
4 1 499.118 -160.077 495.511 -0.181293 0.578193 0.682469 0.408732 
9 1 168.763 169.574 498.051 0.373471 0.171741 0.466619 0.783129 
3 1 161.355 469.043 490.683 0.254853 0.641369 0.385203 0.612629 
ITEM: TIMESTEP
140000
ITEM: NUMBER OF ATOMS
15
ITEM: BOX BOUNDS pp pp pp
-5.0000000000000000e+02 5.0000000000000000e+02
-5.0000000000000000e+02 5.0000000000000000e+02
-5.0000000000000000e+02 5.0000000000000000e+02
ITEM: ATOMS id type x y z c_q[1] c_q[2] c_q[3] c_q[4] 
2 1 -178.614 -488.655 -482.779 0.561639 0.282058 0.608506 0.484484 
5 1 -162.98 -172.566 -496.299 0.839032 0.484398 0.0697551 0.237737 
6 1 148.592 -176.082 -491.061 0.0674906 0.761473 0.317138 0.561273 
7 1 496.398 148.204 -485.092 -0.131791 0.849784 0.389587 0.329728 
8 1 -145.543 168.398 -494.684 0.108954 -0.019236 0.391442 0.913527 
12 1 160.288 -475.556 -189.236 0.724503 0.618052 0.178011 0.247828 
15 1 186.018 -171.883 -174.035 0.500436 0.495812 -0.0904254 0.703958 
13 1 -499.661 -165.823 -173.829 -0.160562 0.766904 0.468483 0.408168 
14 1 -169.12 -154.527 -169.098 0.547243 0.126986 0.0858878 0.822814 
10 1 488.589 481.628 -176.254 -0.191289 0.570593 0.00124582 0.798643 
11 1 -195.65 -469.457 -149.081 0.527451 0.106533 0.716384 0.444117 
1 1 493.85 -489.38 466.615 0.650993 0.580463 0.336649 0.354877 
4 1 499.672 -157.663 499.634 -0.212977 0.561786 0.713612 0.36027 
9 1 169.235 168.964 494.458 0.404413 0.146743 0.429033 0.794259 
3 1 165.322 467.349 486.681 0.223655 0.691964 0.40705 0.552698 
ITEM: TIMESTEP
150000
ITEM: NUMBER OF ATOMS
15
ITEM: BOX BOUNDS pp pp pp
-5.0000000000000000e+02 5.0000000000000000e+02
-5.0000000000000000e+02 5.0000000000000000e+02
-5.0000000000000000e+02 5.0000000000000000e+02
ITEM: ATOMS id type x y z c_q[1] c_q[2] c_q[3] c_q[4] 
2 1 -175.364 -484.239 -484.09 0.587538 0.266645 0.593534 0.481058 
6 1 145.771 -174.965 -493.227 0.0478773 0.782201 0.294795 0.546777 
5 1 -165.369 -166.723 -494.608 0.850188 0.46969 0.105188 0.213326 
4 1 497.597 -163.439 -498.4 -0.227053 0.533305 0.736573 0.34856 
8 1 -139.514 165.226 -494.773 0.0913999 0.0125799 0.400118 0.911808 
7 1 497.572 152.958 -485.102 -0.183152 0.84246 0.383783 0.330798 
12 1 161.383 -476.742 -187.593 0.743911 0.603884 0.152867 0.241975 
15 1 180.337 -175.829 -179.451 0.512729 0.503719 -0.0895511 0.689461 
14 1 -174.919 -162.015 -171.899 0.549539 0.128174 0.0984193 0.81969 
13 1 -499.908 -163.278 -171.578 -0.145903 0.766836 0.466629 0.41585 
10 1 491.545 481.191 -176.489 -0.231646 0.545889 0.0440675 0.803992 
11 1 -196.065 -458.573 -151.751 0.504461 0.118521 0.740743 0.427519 
1 1 495.668 -485.723 469.161 0.617743 0.58555 0.333188 0.4056 
9 1 173.403 175.685 498.674 0.386954 0.139371 0.453623 0.790613 
3 1 160.958 468.561 486.831 0.221157 0.694311 0.427621 0.534941 
ITEM: TIMESTEP
160000
ITEM: NUMBER OF ATOMS
15
ITEM: BOX BOUNDS pp pp pp
-5.0000000000000000e+02 5.0000000000000000e+02
-5.0000000000000000e+02 5.0000000000000000e+02
-5.0000000000000000e+02 5.0000000000000000e+02
ITEM: ATOMS id type x y z c_q[1] c_q[2] c_q[3] c_q[4] 
2 1 -171.556 -486.024 -480.649 0.552457 0.304431 0.595818 0.497106 
5 1 -165.069 -168.426 -488.894 0.839761 0.497202 0.0618332 0.209209 
6 1 146.793 -175.261 -491.147 0.0701237 0.768235 0.277223 0.572752 
4 1 495.493 -161.492 -498.136 -0.235705 0.586731 0.704441 0.322418 
8 1 -135.633 166.82 -492.401 0.120507 -0.0016721 0.406287 0.905763 
7 1 496.507 156.554 -487.111 -0.192807 0.814905 0.428391 0.339464 
9 1 171.918 177.385 -497.368 0.346795 0.143379 0.439701 0.815989 
12 1 164.936 -470.912 -188.109 0.749186 0.600025 0.162157 0.2289 
15 1 181.546 -173.811 -176.913 0.571787 0.48737 -0.0745243 0.655726 
13 1 -498.262 -163.413 -174.714 -0.171989 0.732882 0.459457 0.471385 
14 1 -169.688 -159.329 -172.242 0.517286 0.0920928 0.121512 0.842122 
10 1 490.858 478.381 -175.062 -0.261253 0.525748 0.0779954 0.805763 
11 1 -190.818 -462.559 -147.662 0.54308 0.186281 0.694848 0.43307 
1 1 496.681 -485.579 470.505 0.598442 0.602607 0.3382 0.405405 
3 1 156.625 470.864 484.614 0.292154 0.677609 0.414847 0.532347 
ITEM: TIMESTEP
170000
ITEM: NUMBER OF ATOMS
15
ITEM: BOX BOUNDS pp pp pp
-5.0000000000000000e+02 5.0000000000000000e+02
-5.0000000000000000e+02 5.0000000000000000e+02
-5.0000000000000000e+02 5.0000000000000000e+02
ITEM: ATOMS id type x y z c_q[1] c_q[2] c_q[3] c_q[4] 
2 1 -167.891 -487.867 -481.566 0.576173 0.263192 0.589599 0.501127 
5 1 -168.283 -169.278 -486.715 0.822382 0.511023 0.0279206 0.248524 
6 1 147.499 -174.744 -495.886 0.0293392 0.781352 0.304094 0.544201 
4 1 496.263 -159.306 -499.31 -0.249852 0.576669 0.709379 0.319073 
7 1 490.633 156.593 -486.969 -0.235062 0.839618 0.367065 0.324115 
8 1 -135.98 171.205 -492.768 0.143853 0.0107611 0.427609 0.89238 
9 1 169.829 177.539 -497.519 0.361221 0.132503 0.409433 0.82724 
12 1 165.307 -472.404 -189.395 0.734781 0.621765 0.161897 0.217471 
15 1 183.586 -178.431 -178.745 0.581083 0.516853 -0.0603301 0.625753 
13 1 497.482 -166.22 -173.522 -0.209678 0.741913 0.460376 0.440062 
14 1 -165.61 -162.771 -174.323 0.497792 0.122956 0.109839 0.851481 
10 1 488.178 479.849 -180.273 -0.21584 0.532748 0.076438 0.814709 
11 1 -193.406 -460.717 -147.346 0.566179 0.112128 0.667452 0.470506 
1 1 498.727 -486.398 468.187 0.600519 0.572478 0.338158 0.44418 
3 1 155.062 474.884 487.39 0.350133 0.656274 0.412759 0.525682 
ITEM: TIMESTEP
180000
ITEM: NUMBER OF ATOMS
15
ITEM: BOX BOUNDS pp pp pp
-5.0000000000000000e+02 5.0000000000000000e+02
-5.0000000000000000e+02 5.0000000000000000e+02
-5.0000000000000000e+02 5.0000000000000000e+02
ITEM: ATOMS id type x y z c_q[1] c_q[2] c_q[3] c_q[4] 
2 1 -167.203 -490.08 -488.097 0.592279 0.251397 0.548885 0.533602 
5 1 -162.463 -168.672 -486.897 0.80991 0.525569 0.0476105 0.256039 
6 1 148.564 -169.657 -495.645 -0.0339245 0.787892 0.286189 0.544217 
7 1 490.692 157.404 -489.39 -0.232781 0.811425 0.403721 0.352721 
8 1 -132.843 167.735 -489.486 0.132697 0.0167973 0.396938 0.908047 
9 1 175.933 177.402 -499.958 0.400428 0.111998 0.363202 0.833785 
12 1 166.187 -473.422 -187.212 0.737571 0.617492 0.193286 0.193218 
15 1 187.82 -178.873 -175.937 0.586691 0.500821 -0.0513396 0.6343 
14 1 -169.523 -162.399 -173.072 0.487003 0.134235 0.136221 0.852205 
13 1 498.115 -163.385 -178.395 -0.138619 0.721138 0.442076 0.515086 
10 1 487.85 477.869 -180.049 -0.27195 0.554055 0.0684493 0.783824 
11 1 -192.353 -455.574 -142.765 0.561447 0.133552 0.689162 0.438173 
1 1 -498.2 -479.246 471.603 0.593149 0.567262 0.324461 0.470228 
4 1 498.498 -156.399 497.434 -0.25942 0.537378 0.722218 0.349753 
3 1 151.338 476.479 489.876 0.341983 0.653076 0.400459 0.544217 
ITEM: TIMESTEP
190000
ITEM: NUMBER OF ATOMS
15
ITEM: BOX BOUNDS pp pp pp
-5.0000000000000000e+02 5.0000000000000000e+02
-5.0000000000000000e+02 5.0000000000000000e+02
-5.0000000000000000e+02 5.0000000000000000e+02
ITEM: ATOMS id type x y z c_q[1] c_q[2] c_q[3] c_q[4] 
2 1 -166.359 -488.714 -486.756 0.597064 0.270504 0.551169 0.516289 
5 1 -157.503 -168.668 -484.779 0.791499 0.550275 0.0355493 0.263559 
6 1 152.267 -166.127 -498.545 -0.0091242 0.765852 0.315594 0.560168 
7 1 485.984 164.419 -490.779 -0.223021 0.800278 0.436513 0.345359 
8 1 -131.319 167.441 -490.13 0.136801 0.0597424 0.404641 0.902209 
12 1 165.442 -476.643 -188.289 0.720015 0.649499 0.183839 0.161037 
13 1 -499.05 -167.275 -175.817 -0.16002 0.759392 0.394272 0.492206 
15 1 188.887 -176.574 -175.18 0.623518 0.494064 -0.0576554 0.60316 
14 1 -164.458 -164.202 -172.799 0.524344 0.162689 0.0975604 0.830107 
10 1 492.867 474.236 -178.328 -0.28831 0.572104 0.0410829 0.766738 
11 1 -188.115 -457.171 -139.344 0.537325 0.155553 0.714032 0.421003 
1 1 496.772 -480.526 471.021 0.604472 0.570722 0.334933 0.443521 
4 1 494.36 -158.852 497.708 -0.237077 0.511294 0.743968 0.359004 
9 1 172.695 178.405 -499.284 0.383266 0.174571 0.364102 0.8307 
3 1 155.557 477.129 494.492 0.32426 0.657197 0.415681 0.538663 
ITEM: TIMESTEP
200000
ITEM: NUMBER OF ATOMS
15
ITEM: BOX BOUNDS pp pp pp
-5.0000000000000000e+02 5.0000000000000000e+02
-5.0000000000000000e+02 5.0000000000000000e+02
-5.0000000000000000e+02 5.0000000000000000e+02
ITEM: ATOMS id type x y z c_q[1] c_q[2] c_q[3] c_q[4] 
2 1 -164.305 -485.984 -484.864 0.604568 0.270606 0.568015 0.488496 
5 1 -160.426 -168.711 -484.746 0.755809 0.597394 0.0204377 0.267312 
6 1 156.298 -165.133 -496.149 -0.0260379 0.772791 0.31554 0.550047 
4 1 496.201 -162.893 -499.432 -0.251152 0.52715 0.723553 0.368111 
7 1 484.529 162.934 -490.799 -0.23825 0.796297 0.432441 0.349489 
8 1 -132.025 170.056 -491.549 0.105586 0.0246408 0.422804 0.899712 
9 1 176.596 181.107 -497.739 0.361479 0.124239 0.361822 0.850284 
12 1 165.816 -476.023 -185.242 0.712925 0.652381 0.220225 0.13281 
15 1 193.265 -176.192 -171.847 0.609391 0.491374 -0.0602217 0.619328 
13 1 498.035 -167.031 -175.207 -0.13655 0.736116 0.406129 0.523972 
14 1 -161.117 -160.982 -174.312 0.526522 0.153192 0.132338 0.825708 
10 1 491.44 475.101 -175.841 -0.263229 0.575238 0.0189277 0.774244 
11 1 -184.181 -463.116 -141.863 0.526973 0.208957 0.727132 0.38719 
1 1 494.375 -483.241 473.673 0.61576 0.575597 0.30267 0.444881 
3 1 154.921 472.57 496.923 0.316415 0.664233 0.420551 0.53086 
ITEM: TIMESTEP
210000
ITEM: NUMBER OF ATOMS
15
ITEM: BOX BOUNDS pp pp pp
-5.0000000000000000e+02 5.0000000000000000e+02
-5.0000000000000000e+02 5.0000000000000000e+02
-5.0000000000000000e+02 5.0000000000000000e+02
ITEM: ATOMS id type x y z c_q[1] c_q[2] c_q[3] c_q[4] 
2 1 -161.527 -483.461 -482.871 0.603532 0.274418 0.569465 0.485956 
5 1 -156.59 -168.561 -487.162 0.775844 0.575224 0.029256 0.257542 
6 1 152.032 -162.957 -495.199 -0.0118627 0.804111 0.311931 0.505929 
7 1 489.35 161.612 -493.298 -0.2619 0.77582 0.431903 0.378115 
8 1 -131.706 170.014 -495.176 0.117668 0.0118015 0.423743 0.89803 
9 1 179.381 178.997 -498.259 0.374179 0.145814 0.352545 0.845246 
12 1 165.218 -474.645 -179.521 0.706095 0.645075 0.239989 0.166474 
15 1 193.251 -177.149 -168.69 0.609213 0.49641 -0.0569597 0.615786 
14 1 -157.258 -163.816 -170.873 0.50723 0.174724 0.174074 0.825765 
13 1 495.829 -167.621 -180.066 -0.141504 0.745407 0.37465 0.5329 
10 1 490.361 471.095 -175.793 -0.255889 0.541555 0.0180848 0.80057 
11 1 -184.273 -462.498 -138.784 0.545612 0.179875 0.709585 0.407972 
1 1 497.366 -481.946 470.257 0.651165 0.583817 0.307259 0.375144 
4 1 492.25 -162.398 499.131 -0.206183 0.543533 0.748218 0.319735 
3 1 152.76 476.084 498.253 0.375097 0.638541 0.421313 0.523509 
ITEM: TIMESTEP
220000
ITEM: NUMBER OF ATOMS
15
ITEM: BOX BOUNDS pp pp pp
-5.0000000000000000e+02 5.0000000000000000e+02
-5.0000000000000000e+02 5.0000000000000000e+02
-5.0000000000000000e+02 5.0000000000000000e+02
ITEM: ATOMS id type x y z c_q[1] c_q[2] c_q[3] c_q[4] 
2 1 -165.269 -487.084 -481.257 0.585114 0.268687 0.597504 0.477952 
5 1 -151.191 -169.582 -494.066 0.776749 0.56571 0.120768 0.249096 
6 1 152.925 -162.928 -492.129 -0.00493984 0.810725 0.304685 0.499867 
7 1 490.607 158.718 -490.509 -0.226954 0.783605 0.413145 0.40468 
8 1 -134.378 170.871 -498.98 0.120973 0.0292977 0.450587 0.884013 
9 1 180.967 176.811 -497.615 0.361509 0.200465 0.352062 0.839749 
12 1 161.427 -475.696 -184.711 0.699291 0.653737 0.231294 0.173558 
15 1 191.58 -171.351 -175.616 0.582702 0.479835 -0.0769675 0.651377 
14 1 -162.639 -161.98 -170.35 0.522831 0.166663 0.200767 0.81152 
13 1 491.402 -166.295 -178.39 -0.156507 0.742153 0.360566 0.542869 
10 1 485.038 463.725 -172.082 -0.28925 0.539231 0.00275363 0.790921 
11 1 -183.514 -461.134 -135.301 0.548327 0.177696 0.727016 0.373109 
1 1 -499.164 -479.895 467.571 0.619353 0.58146 0.359687 0.385916 
4 1 485.743 -165.968 496.6 -0.220693 0.573441 0.740467 0.272341 
3 1 152.986 474.819 495.489 0.391688 0.633077 0.397232 0.536657 
ITEM: TIMESTEP
230000
ITEM: NUMBER OF ATOMS
15
ITEM: BOX BOUNDS pp pp pp
-5.0000000000000000e+02 5.0000000000000000e+02
-5.0000000000000000e+02 5.0000000000000000e+02
-5.0000000000000000e+02 5.0000000000000000e+02
ITEM: ATOMS id type x y z c_q[1] c_q[2] c_q[3] c_q[4] 
2 1 -156.983 -485.63 -483.813 0.572555 0.241708 0.590284 0.515095 
5 1 -149.513 -164.338 -497.611 0.781935 0.51818 0.170142 0.30186 
6 1 153.981 -165.595 -491.833 -0.0115069 0.816044 0.33387 0.471668 
7 1 491.867 163.445 -495.399 -0.23516 0.785587 0.426951 0.381138 
9 1 179.497 176.479 -497.479 0.347173 0.19122 0.360513 0.844356 
12 1 152.849 -480.295 -182.715 0.687369 0.642362 0.279911 0.191166 