ITEM: TIMESTEP
0
ITEM: NUMBER OF ATOMS
5
ITEM: BOX BOUNDS
-500.000000 500.000000
-500.000000 500.000000
-500.000000 500.000000
ITEM: ATOMS id type x y z c_q[1] c_q[2] c_q[3] c_q[4]
1 1 -500.000000 -500.000000 -500.000000 0.513080 0.533369 0.662563 0.115225
2 1 0.000000 -500.000000 -500.000000 0.257882 0.700127 0.566010 0.350645
3 1 -500.000000 0.000000 -500.000000 0.476079 0.632231 0.591722 0.153291
4 1 0.000000 0.000000 -500.000000 0.101436 0.984148 0.006901 0.145314
5 1 -500.000000 -500.000000 0.000000 0.463616 0.759655 0.436625 0.131697
