ITEM: TIMESTEP
0
ITEM: NUMBER OF ATOMS
20
ITEM: BOX BOUNDS pp pp pp
-5.0000000000000000e+02 5.0000000000000000e+02
-5.0000000000000000e+02 5.0000000000000000e+02
-5.0000000000000000e+02 5.0000000000000000e+02
ITEM: ATOMS id type x y z c_q[1] c_q[2] c_q[3] c_q[4] 
1 1 -500 -500 -500 0.680715 0.642838 0.160764 0.312317 
2 1 -166.667 -500 -500 0.328724 0.501897 0.600756 0.52833 
3 1 166.667 -500 -500 0.53907 0.571213 0.087071 0.612811 
4 1 -500 -166.667 -500 0.646433 0.591478 0.262808 0.403991 
5 1 -166.667 -166.667 -500 0.472342 0.017648 0.537438 0.698386 
6 1 166.667 -166.667 -500 0.230235 0.395217 0.841451 0.287671 
7 1 -500 166.667 -500 0.289667 0.16592 0.926688 0.172662 
8 1 -166.667 166.667 -500 0.556241 0.203125 0.779632 0.203742 
9 1 166.667 166.667 -500 0.232586 0.38195 0.42689 0.785992 
10 1 -500 -500 -166.667 0.397911 0.375768 0.299321 0.781583 
11 1 -166.667 -500 -166.667 0.193417 0.661543 0.382231 0.615508 
12 1 166.667 -500 -166.667 0.460616 0.208456 0.731639 0.457255 
13 1 -500 -166.667 -166.667 0.60207 0.503947 0.598048 0.160898 
14 1 -166.667 -166.667 -166.667 0.218658 0.516814 0.729891 0.390322 
15 1 166.667 -166.667 -166.667 0.508335 0.757436 0.049965 0.406681 
16 1 -500 166.667 -166.667 0.30136 0.697018 0.436605 0.482415 
17 1 -166.667 166.667 -166.667 0.573501 0.793625 0.119671 0.164116 
18 1 166.667 166.667 -166.667 0.609652 0.387768 0.671127 0.165979 
19 1 -500 -500 166.667 0.590614 0.750745 0.232492 0.183042 
20 1 -166.667 -500 166.667 0.157017 0.590027 0.615484 0.498391 
ITEM: TIMESTEP
10000
ITEM: NUMBER OF ATOMS
20
ITEM: BOX BOUNDS pp pp pp
-5.0000000000000000e+02 5.0000000000000000e+02
-5.0000000000000000e+02 5.0000000000000000e+02
-5.0000000000000000e+02 5.0000000000000000e+02
ITEM: ATOMS id type x y z c_q[1] c_q[2] c_q[3] c_q[4] 
1 1 498.867 -499.468 -499.228 0.673166 0.624551 0.159546 0.362392 
7 1 -494.136 167.907 -498.012 0.323229 0.210301 0.912214 0.138424 
15 1 165.032 -164.734 -167.497 0.494924 0.769778 0.0378172 0.401325 
10 1 -498.9 495.559 -166.687 0.342542 0.371003 0.314525 0.803801 
11 1 -164.288 497.521 -175.845 0.216387 0.649857 0.354574 0.636507 
12 1 163.751 494.33 -169.238 0.384608 0.220587 0.740464 0.505105 
13 1 -494.694 -168.086 -167.673 0.60706 0.528678 0.569447 0.166455 
14 1 -164.01 -169.05 -163.294 0.220347 0.487511 0.761743 0.365414 
16 1 -497.677 162.96 -165.67 0.362532 0.640528 0.442277 0.51253 
18 1 172.41 166.904 -165.584 0.615159 0.351301 0.678684 0.193791 
17 1 -170.094 167.49 -160.968 0.553011 0.806994 0.127268 0.163531 
20 1 -168.69 499.552 165.726 0.174773 0.615044 0.622527 0.45126 
19 1 499.749 497.789 166.638 0.595858 0.714964 0.308704 0.196169 
4 1 -499.022 -169.179 495.008 0.633612 0.583392 0.317139 0.397004 
5 1 -166.974 -168.568 495.03 0.477684 -0.0319015 0.552964 0.681932 
6 1 171.216 -164.359 -499.901 0.202242 0.416814 0.836512 0.292596 
8 1 -164.863 162.815 498.719 0.528783 0.161135 0.811577 0.189121 
9 1 165.294 174.023 496.402 0.189774 0.387399 0.442848 0.785998 
2 1 -172.701 499.313 498.29 0.3406 0.484913 0.5943 0.543745 
3 1 169.569 -499.62 498.296 0.550596 0.558859 0.118527 0.608664 
ITEM: TIMESTEP
20000
ITEM: NUMBER OF ATOMS
20
ITEM: BOX BOUNDS pp pp pp
-5.0000000000000000e+02 5.0000000000000000e+02
-5.0000000000000000e+02 5.0000000000000000e+02
-5.0000000000000000e+02 5.0000000000000000e+02
ITEM: ATOMS id type x y z c_q[1] c_q[2] c_q[3] c_q[4] 
2 1 -177.691 -498.164 -499.094 0.349779 0.47437 0.597096 0.544154 
6 1 169.473 -162.593 -498.943 0.206631 0.406159 0.842897 0.286116 
7 1 -495.139 166.496 -498.108 0.333764 0.208787 0.907785 0.144692 
13 1 -495.141 -170.588 -169.687 0.602517 0.521249 0.575791 0.183675 
15 1 164.578 -164.495 -168.829 0.485114 0.791263 0.0466532 0.369312 
10 1 -498.432 499.417 -167.374 0.354836 0.378 0.310208 0.796855 
11 1 -165.921 500.219 -177.581 0.214006 0.638763 0.372268 0.638436 
12 1 156.315 498.52 -170.484 0.41738 0.2012 0.745816 0.478614 
14 1 -165.861 -166.676 -161.179 0.22398 0.463403 0.772454 0.372028 
17 1 -170.869 162.775 -162.128 0.510667 0.831794 0.132674 0.172441 
18 1 178.889 164.09 -165.687 0.623568 0.360275 0.653826 0.232112 
16 1 -499.403 169.53 -163.839 0.337819 0.673808 0.416483 0.508334 
20 1 -170.914 495.597 160.675 0.187228 0.64888 0.583043 0.451621 
19 1 495.089 496.588 170.493 0.576656 0.723228 0.30245 0.230073 
1 1 -495.696 -499.919 498.435 0.661734 0.636369 0.147332 0.368015 
3 1 163.515 -498.918 495.667 0.587969 0.562177 0.133135 0.566149 
4 1 -495.695 -171.329 495.6 0.627443 0.583555 0.304484 0.416015 
5 1 -171.065 -165.347 492.898 0.468468 -0.0739413 0.478126 0.739233 
8 1 -163.966 159.99 492.799 0.565515 0.195785 0.779743 0.184017 
9 1 164.297 170.135 497.625 0.198858 0.378191 0.464981 0.775384 
ITEM: TIMESTEP
30000
ITEM: NUMBER OF ATOMS
20
ITEM: BOX BOUNDS pp pp pp
-5.0000000000000000e+02 5.0000000000000000e+02
-5.0000000000000000e+02 5.0000000000000000e+02
-5.0000000000000000e+02 5.0000000000000000e+02
ITEM: ATOMS id type x y z c_q[1] c_q[2] c_q[3] c_q[4] 
7 1 -496.485 163.054 -496.032 0.2734 0.265938 0.912121 0.150214 
12 1 157.337 -492.256 -169.682 0.432112 0.156837 0.704505 0.540697 
13 1 -494.085 -172.746 -171.767 0.575982 0.531877 0.596171 0.173007 
15 1 159.964 -162.358 -168.903 0.485915 0.78387 0.0758163 0.37906 
18 1 176.038 163.854 -166.784 0.613132 0.365913 0.66202 0.227828 
10 1 -496.56 497.637 -165.94 0.361805 0.358799 0.359884 0.781565 
11 1 -164.212 496.678 -178.836 0.2191 0.660605 0.345383 0.629529 
14 1 -166.113 -167.454 -161.091 0.27491 0.503329 0.739938 0.351535 
17 1 -170.55 166.062 -163.001 0.482814 0.830613 0.177266 0.213423 
16 1 -495.345 172.817 -159.878 0.345316 0.638068 0.429061 0.538083 
20 1 -172.267 490.713 158.469 0.121953 0.673061 0.581127 0.440917 
19 1 495.589 490.81 172.688 0.555989 0.732955 0.319679 0.226843 
3 1 162.529 -497.155 490.931 0.577933 0.579935 0.170353 0.548314 
4 1 -498.541 -168.807 497.173 0.583323 0.598315 0.286046 0.468969 
5 1 -166.811 -168.473 493.642 0.453311 -0.0241715 0.522347 0.721857 
6 1 166.512 -164.565 495.917 0.206672 0.449428 0.828854 0.261347 
8 1 -167.131 159.304 491.557 0.596741 0.165097 0.767613 0.165569 
9 1 159.553 172.52 492.182 0.236247 0.370263 0.436436 0.785249 
1 1 -494.062 498.817 494.632 0.627382 0.672693 0.119654 0.373575 
2 1 -183.255 496.742 498.771 0.344162 0.452691 0.587158 0.57608 
ITEM: TIMESTEP
40000
ITEM: NUMBER OF ATOMS
20
ITEM: BOX BOUNDS pp pp pp
-5.0000000000000000e+02 5.0000000000000000e+02
-5.0000000000000000e+02 5.0000000000000000e+02
-5.0000000000000000e+02 5.0000000000000000e+02
ITEM: ATOMS id type x y z c_q[1] c_q[2] c_q[3] c_q[4] 
7 1 498.263 160.178 -493.936 0.267284 0.305938 0.894419 0.187017 
2 1 -183.853 499.081 -496.95 0.348536 0.456822 0.582557 0.574859 
12 1 159.338 -488.295 -167.739 0.439025 0.178674 0.717812 0.509979 
13 1 -494.986 -177.136 -173.59 0.581568 0.507239 0.617989 0.15026 
15 1 156.534 -159.224 -169.749 0.5012 0.765635 0.0708575 0.396965 
18 1 179.59 164.185 -167.467 0.610451 0.354168 0.665597 0.242684 
11 1 -165.51 497.684 -179.67 0.209417 0.678173 0.361266 0.604742 
10 1 -497.997 -498.579 -165.262 0.362976 0.343536 0.351781 0.791506 
14 1 -164.643 -165.496 -162.337 0.28172 0.531508 0.726771 0.331569 
16 1 -495.222 167.184 -159.097 0.34835 0.642013 0.415215 0.54228 
17 1 -166.524 171.637 -159.187 0.457815 0.836306 0.189782 0.234481 
20 1 -176.732 488.84 160.315 0.145848 0.692375 0.577636 0.40704 
19 1 495.303 490.319 174.53 0.552299 0.714909 0.34469 0.25507 
3 1 163.122 -494.081 488.317 0.571904 0.582343 0.159411 0.55533 
5 1 -166.849 -168.131 498.015 0.484807 -0.0435298 0.487372 0.724939 
4 1 -498.053 -163.638 492.316 0.595117 0.615105 0.303837 0.418526 
6 1 169.328 -164.914 496.939 0.194694 0.416893 0.860766 0.21766 
8 1 -170.29 164.893 488.383 0.639059 0.144834 0.730767 0.191327 
9 1 160.454 175.602 488.953 0.227556 0.386119 0.416553 0.790958 
1 1 -497.029 496.277 497.265 0.582738 0.71014 0.118024 0.377078 
ITEM: TIMESTEP
50000
ITEM: NUMBER OF ATOMS
20
ITEM: BOX BOUNDS pp pp pp
-5.0000000000000000e+02 5.0000000000000000e+02
-5.0000000000000000e+02 5.0000000000000000e+02
-5.0000000000000000e+02 5.0000000000000000e+02
ITEM: ATOMS id type x y z c_q[1] c_q[2] c_q[3] c_q[4] 
2 1 -184.588 -494.234 -496.573 0.373032 0.413212 0.596189 0.5785 
7 1 -499.492 159.403 -489.993 0.270086 0.309141 0.900758 0.141845 
12 1 158.529 -489.046 -169.2 0.409329 0.204859 0.732805 0.503467 
13 1 -492.679 -173.084 -175.537 0.559368 0.5445 0.614714 0.112931 
15 1 156.919 -158.204 -169.622 0.492497 0.746491 0.124362 0.429805 
18 1 182.374 167.807 -171.187 0.613473 0.336136 0.67672 0.229594 
11 1 -170.415 497.886 -175.237 0.203778 0.637241 0.381232 0.638013 
10 1 500.158 -497.986 -165.074 0.359663 0.352786 0.35504 0.787484 
14 1 -165.301 -163.858 -160.979 0.271214 0.495568 0.711815 0.417342 
16 1 -498.107 169.642 -158.988 0.328315 0.631975 0.432118 0.553255 
17 1 -167.538 171.803 -153.952 0.419726 0.856619 0.191977 0.230606 
20 1 -173.996 488.99 158.258 0.16303 0.623401 0.615999 0.453143 
19 1 491.509 489.512 173.16 0.503024 0.710131 0.393737 0.296061 
3 1 159.536 -493.697 487.249 0.581858 0.634009 0.164885 0.481961 
5 1 -166.204 -168.286 495.225 0.459228 -0.0471312 0.515968 0.721571 
4 1 -497.71 -162.98 490.613 0.614505 0.590398 0.268919 0.448883 
6 1 170.776 -162.102 499.76 0.233778 0.385856 0.861738 0.232099 
8 1 -166.523 166.178 494.511 0.648759 0.101821 0.726247 0.203247 
9 1 159.456 177.291 486.88 0.24736 0.382092 0.362349 0.81334 
1 1 -495.954 494.856 495.731 0.606174 0.701292 0.130884 0.351585 
ITEM: TIMESTEP
60000
ITEM: NUMBER OF ATOMS
20
ITEM: BOX BOUNDS pp pp pp
-5.0000000000000000e+02 5.0000000000000000e+02
-5.0000000000000000e+02 5.0000000000000000e+02
-5.0000000000000000e+02 5.0000000000000000e+02
ITEM: ATOMS id type x y z c_q[1] c_q[2] c_q[3] c_q[4] 
2 1 -189.931 -494.574 -495.254 0.390566 0.441828 0.609823 0.529491 
6 1 173.05 -157.608 -496.308 0.201983 0.351475 0.884655 0.230336 
7 1 -496.852 165.449 -492.086 0.256854 0.234295 0.92481 0.154465 
11 1 -171.133 -497.936 -173.092 0.20056 0.65487 0.363759 0.631349 
12 1 157.883 -488.572 -169.885 0.439609 0.166227 0.73623 0.486906 
10 1 496.801 -498.086 -167.723 0.353472 0.308621 0.370789 0.801452 
13 1 -494.163 -171.111 -176.211 0.550538 0.514733 0.641437 0.143237 
18 1 185.281 169.495 -175.583 0.651471 0.336711 0.641055 0.226406 
14 1 -164.073 -169.136 -160.084 0.25688 0.512487 0.707371 0.413516 
15 1 153.893 -152.5 -166.695 0.466622 0.757424 0.193794 0.41354 
16 1 -496.898 164.467 -164.534 0.316399 0.643807 0.400605 0.570017 
17 1 -167.624 165.237 -149.287 0.42369 0.854951 0.225233 0.197017 
20 1 -174.647 485.073 155.813 0.191834 0.628549 0.591067 0.467724 
19 1 496.157 488.507 177.677 0.503798 0.704214 0.393209 0.309284 
3 1 157.702 -491.107 483.832 0.60387 0.639426 0.169447 0.444707 
5 1 -170.387 -165.79 495.785 0.457413 -0.103875 0.518101 0.715231 
4 1 -492.92 -160.717 493.485 0.601425 0.576529 0.273367 0.480804 
8 1 -165.307 165.571 489.285 0.682452 0.146276 0.683132 0.214926 
9 1 161.057 180.587 485.65 0.206633 0.370526 0.365255 0.828615 
1 1 -495.585 493.917 492.936 0.577695 0.743804 0.104517 0.319532 
ITEM: TIMESTEP
70000
ITEM: NUMBER OF ATOMS
20
ITEM: BOX BOUNDS pp pp pp
-5.0000000000000000e+02 5.0000000000000000e+02
-5.0000000000000000e+02 5.0000000000000000e+02
-5.0000000000000000e+02 5.0000000000000000e+02
ITEM: ATOMS id type x y z c_q[1] c_q[2] c_q[3] c_q[4] 
2 1 -193.758 -494.126 -493.296 0.418896 0.4507 0.59681 0.514989 
5 1 -169.104 -163.847 -497.723 0.420895 -0.0857102 0.550269 0.716034 
6 1 171.253 -160.489 -495.597 0.203548 0.346823 0.865255 0.299359 
7 1 -495.601 165.723 -485.506 0.248748 0.219539 0.930264 0.156638 
11 1 -174.247 -494.184 -170.867 0.178744 0.63656 0.371821 0.651607 
12 1 157.408 -487.266 -170.782 0.456281 0.169483 0.728157 0.482567 
13 1 -491.222 -168.015 -173.976 0.558378 0.533177 0.62278 0.126814 
15 1 160.471 -152.179 -167.615 0.433431 0.772177 0.18743 0.425146 
18 1 186.923 165.87 -178.714 0.684142 0.332693 0.608178 0.226682 
10 1 498.775 498.53 -168.466 0.358021 0.305646 0.365604 0.802954 
14 1 -165.299 -167.527 -154.989 0.254596 0.501813 0.701348 0.43758 
16 1 -497.932 161.002 -165.417 0.299169 0.639965 0.383059 0.595154 
17 1 -168.616 166.731 -147.662 0.397145 0.868649 0.214468 0.204276 
20 1 -175.047 488.035 157.312 0.218921 0.63479 0.584307 0.455743 
19 1 493.625 493.8 174.62 0.503233 0.684201 0.400729 0.343572 
3 1 157.606 -492.353 479.447 0.594009 0.628009 0.158951 0.476962 
4 1 -488.894 -164.595 495.785 0.565681 0.577268 0.304784 0.503858 
8 1 -162.704 164.284 493.094 0.691296 0.154582 0.667976 0.228084 
9 1 167.35 179.375 481.864 0.181423 0.393764 0.331996 0.837744 
1 1 -494.44 495.429 488.437 0.588246 0.713572 0.0727482 0.373482 
ITEM: TIMESTEP
80000
ITEM: NUMBER OF ATOMS
20
ITEM: BOX BOUNDS pp pp pp
-5.0000000000000000e+02 5.0000000000000000e+02
-5.0000000000000000e+02 5.0000000000000000e+02
-5.0000000000000000e+02 5.0000000000000000e+02
ITEM: ATOMS id type x y z c_q[1] c_q[2] c_q[3] c_q[4] 
2 1 -199.547 -491.291 -492.235 0.411741 0.478732 0.579519 0.515212 
5 1 -164.384 -161.32 -497.177 0.395651 -0.0746112 0.554061 0.728636 
6 1 169.91 -163.821 -493.997 0.246066 0.362352 0.838674 0.323693 
7 1 -497.681 166.143 -485.262 0.27302 0.175798 0.932139 0.160224 
11 1 -174.638 -492.503 -177.941 0.221293 0.642196 0.400082 0.615263 
12 1 158.042 -488.83 -178.826 0.427592 0.194588 0.730827 0.495169 
13 1 -491.931 -166.056 -174.531 0.54622 0.545199 0.625476 0.114814 
16 1 498.385 163.762 -166.238 0.283403 0.628888 0.395366 0.606522 
18 1 192.279 166.644 -180.932 0.67945 0.353881 0.608766 0.206202 
10 1 491.894 493.568 -169.182 0.336492 0.277832 0.399098 0.806414 
14 1 -167.239 -172.11 -156.209 0.323972 0.4627 0.676178 0.473005 
15 1 156.78 -153.113 -164.143 0.432447 0.767371 0.163861 0.444164 
17 1 -169.746 163.93 -147.192 0.425685 0.860917 0.209687 0.183427 
20 1 -172.762 489.445 150.255 0.206493 0.600207 0.606947 0.478254 
19 1 493.8 497.269 172.19 0.486044 0.67212 0.447384 0.334461 
1 1 -494.689 -497.459 487.82 0.580788 0.73179 0.0715461 0.349355 
3 1 155.654 -490.689 482.927 0.555306 0.641329 0.152679 0.506973 
4 1 -483.17 -166.832 497.917 0.572694 0.59411 0.284393 0.488033 
8 1 -162.832 162.707 490.053 0.714133 0.136587 0.649738 0.221809 
9 1 167.661 179.618 482.086 0.191033 0.395834 0.292965 0.849113 
ITEM: TIMESTEP
90000
ITEM: NUMBER OF ATOMS
20
ITEM: BOX BOUNDS pp pp pp
-5.0000000000000000e+02 5.0000000000000000e+02
-5.0000000000000000e+02 5.0000000000000000e+02
-5.0000000000000000e+02 5.0000000000000000e+02
ITEM: ATOMS id type x y z c_q[1] c_q[2] c_q[3] c_q[4] 
2 1 -203.968 -489.28 -496.483 0.429517 0.486642 0.574714 0.498397 
5 1 -163.906 -153.164 -494.201 0.395199 -0.0742017 0.56698 0.71892 
6 1 167.822 -160.621 -492.308 0.261651 0.330731 0.831811 0.360897 
7 1 -493.482 168.984 -481.704 0.266559 0.127425 0.942433 0.156619 
11 1 -172.995 -497.619 -181.661 0.264927 0.666291 0.379228 0.584855 
12 1 160.836 -488.98 -175.014 0.374848 0.188064 0.780016 0.464431 
13 1 -494.441 -167.216 -179.909 0.484476 0.578348 0.644368 0.124844 
16 1 -499.039 157.07 -175.643 0.268838 0.60545 0.405653 0.629763 
18 1 194.98 167.633 -182.701 0.655369 0.394446 0.623794 0.160576 
10 1 488.604 486.475 -169.976 0.379179 0.329826 0.379897 0.776606 
14 1 -169.22 -173.855 -151.076 0.340683 0.427295 0.702021 0.456641 
15 1 157.693 -153.966 -162.871 0.436905 0.761869 0.109403 0.465512 
17 1 -166.849 166.691 -145.545 0.421006 0.849915 0.221995 0.226089 
20 1 -172.361 496.038 146.489 0.187964 0.610981 0.608735 0.469909 
19 1 491.566 498.559 170.566 0.483611 0.659311 0.432475 0.379993 
1 1 -488.814 -498.489 484.297 0.602841 0.719956 0.0321806 0.342361 
3 1 149.31 -494.588 483.94 0.57312 0.640286 0.113888 0.498595 
4 1 -481.637 -165.935 496.785 0.545929 0.623998 0.272896 0.487971 
8 1 -165.9 162.829 492.403 0.742565 0.109231 0.613371 0.245849 
9 1 167.444 184.529 480.65 0.177461 0.409182 0.301235 0.842814 
ITEM: TIMESTEP
100000
ITEM: NUMBER OF ATOMS
20
ITEM: BOX BOUNDS pp pp pp
-5.0000000000000000e+02 5.0000000000000000e+02
-5.0000000000000000e+02 5.0000000000000000e+02
-5.0000000000000000e+02 5.0000000000000000e+02
ITEM: ATOMS id type x y z c_q[1] c_q[2] c_q[3] c_q[4] 
2 1 -201.647 -488.469 -499.032 0.418539 0.484369 0.5477 0.538736 
5 1 -161.476 -149.329 -491.276 0.433568 -0.0700143 0.597416 0.670977 
6 1 169.166 -162.849 -484.441 0.271272 0.323929 0.846493 0.323931 
7 1 -493.449 174.098 -485.164 0.282292 0.0861696 0.933859 0.201974 
11 1 -171.353 -495.295 -182.358 0.289793 0.67144 0.355578 0.582025 
12 1 163.917 -489.35 -174.873 0.368449 0.168816 0.801473 0.439758 
13 1 -494.927 -164.263 -178.361 0.504417 0.548035 0.662746 0.0773946 
16 1 -497.621 157.216 -175.436 0.266469 0.583741 0.449448 0.62148 
18 1 191.248 165.706 -187.603 0.596188 0.376105 0.688555 0.170285 
10 1 491.15 485.176 -168.865 0.376529 0.304363 0.396681 0.779894 
14 1 -166.721 -177.834 -151.873 0.349431 0.407443 0.713364 0.450555 
15 1 159.79 -157.76 -163.967 0.42987 0.763804 0.0886286 0.473244 
17 1 -167.074 168.724 -148.911 0.424243 0.844355 0.223628 0.238898 
20 1 -171.78 494.041 143.907 0.209899 0.600645 0.594924 0.491155 
19 1 489.45 -498.231 175.949 0.482959 0.650631 0.422946 0.405643 
3 1 151.513 -488.892 485.025 0.566924 0.608721 0.106386 0.544737 
4 1 -479.741 -167.947 498.529 0.520719 0.627043 0.295559 0.498311 
8 1 -172.848 157.588 489.406 0.760907 0.122556 0.610168 0.183563 
9 1 167.627 182.899 479.163 0.139562 0.343884 0.34159 0.863471 
1 1 -485.539 497.558 492.569 0.614761 0.711723 0.042648 0.337195 
ITEM: TIMESTEP
110000
ITEM: NUMBER OF ATOMS
20
ITEM: BOX BOUNDS pp pp pp
-5.0000000000000000e+02 5.0000000000000000e+02
-5.0000000000000000e+02 5.0000000000000000e+02
-5.0000000000000000e+02 5.0000000000000000e+02
ITEM: ATOMS id type x y z c_q[1] c_q[2] c_q[3] c_q[4] 
2 1 -200.638 -486.873 -499.097 0.369341 0.51587 0.577984 0.513225 
4 1 -481.924 -173.519 -498.198 0.531335 0.576164 0.33003 0.526115 
6 1 173.905 -167.069 -484.147 0.251533 0.323564 0.85347 0.321912 
5 1 -161.851 -148.325 -490.221 0.424245 -0.062766 0.624587 0.652663 
7 1 -491.908 175.699 -481.107 0.234187 0.0823412 0.939098 0.237638 
11 1 -176.027 -495.04 -184.748 0.261324 0.683277 0.347592 0.586534 
12 1 162.095 -488.422 -173.709 0.402858 0.158893 0.773013 0.463583 
13 1 -492.893 -167.789 -179.592 0.491945 0.528377 0.687599 0.0775557 
16 1 499.382 161.773 -179.173 0.272179 0.605132 0.419337 0.619589 
18 1 191.571 172.309 -190.201 0.611678 0.350681 0.692366 0.153304 
14 1 -170.307 -182.964 -152.176 0.345907 0.385995 0.70541 0.48348 
15 1 159.246 -159.384 -163.425 0.434208 0.734569 0.0670659 0.517083 
17 1 -167.72 165.837 -150.629 0.413735 0.832262 0.258097 0.263722 
10 1 493.997 482.328 -165.936 0.436435 0.314301 0.343683 0.769819 
20 1 -174.024 494.826 148.708 0.262753 0.583361 0.592078 0.489994 
19 1 485.978 495.943 171.02 0.426334 0.676528 0.40819 0.440375 
1 1 -485.896 -499.803 489.797 0.586028 0.729317 0.0788618 0.344164 
3 1 152.24 -486.008 485.325 0.597377 0.584531 0.147256 0.528942 
8 1 -174.403 156.313 486.714 0.788904 0.141113 0.561332 0.206455 
9 1 163.678 177.447 481.839 0.184259 0.322361 0.395764 0.839942 
ITEM: TIMESTEP
120000
ITEM: NUMBER OF ATOMS
20
ITEM: BOX BOUNDS pp pp pp
-5.0000000000000000e+02 5.0000000000000000e+02
-5.0000000000000000e+02 5.0000000000000000e+02
-5.0000000000000000e+02 5.0000000000000000e+02
ITEM: ATOMS id type x y z c_q[1] c_q[2] c_q[3] c_q[4] 
4 1 -484.303 -175.553 -493.805 0.531642 0.565223 0.308176 0.550371 
5 1 -160.984 -145.85 -484.886 0.390226 -0.0556709 0.67236 0.626543 
6 1 174.151 -164.145 -485.831 0.248594 0.327373 0.871515 0.267376 
7 1 -491.316 172.997 -480.35 0.214315 0.106604 0.934014 0.265185 
11 1 -173.938 -492.142 -183.481 0.288086 0.66946 0.345829 0.590958 
12 1 157.02 -487.226 -168.254 0.432484 0.121589 0.785374 0.425865 
13 1 -496.626 -168.679 -178.58 0.523918 0.523056 0.666496 0.087784 
16 1 498.296 165.703 -176.056 0.305728 0.54127 0.405494 0.670173 
18 1 189.992 174.786 -188.013 0.614897 0.371741 0.679685 0.147441 
14 1 -174.735 -179.452 -153.639 0.329946 0.399507 0.708572 0.479015 
15 1 161.051 -158.895 -162.466 0.422998 0.747559 0.0669946 0.507681 
17 1 -167.923 165.953 -148.679 0.454737 0.826512 0.203498 0.262069 
10 1 493.966 480.488 -164.918 0.447615 0.375963 0.349489 0.732223 
20 1 -169.613 487.543 146.277 0.25335 0.586801 0.589243 0.494237 
19 1 497.192 492.01 170.475 0.449946 0.687175 0.400936 0.405696 
2 1 -201.892 -485.981 496.503 0.378729 0.466526 0.592418 0.536618 
3 1 150.545 -489.326 485.675 0.604486 0.582682 0.155286 0.520543 
8 1 -178.023 150.588 482.646 0.809806 0.164542 0.541896 0.153261 
9 1 163.114 176.608 486.119 0.183029 0.284595 0.413438 0.845325 
1 1 -486.68 495.146 491.005 0.561705 0.737095 0.125814 0.354047 
ITEM: TIMESTEP
130000
ITEM: NUMBER OF ATOMS
20
ITEM: BOX BOUNDS pp pp pp
-5.0000000000000000e+02 5.0000000000000000e+02
-5.0000000000000000e+02 5.0000000000000000e+02
-5.0000000000000000e+02 5.0000000000000000e+02
ITEM: ATOMS id type x y z c_q[1] c_q[2] c_q[3] c_q[4] 
4 1 -478.487 -177.529 -495.894 0.494437 0.568868 0.322112 0.572857 
5 1 -159.901 -148.293 -489.356 0.406927 -0.00145253 0.688359 0.600476 
6 1 174.9 -161.139 -486.126 0.270357 0.33979 0.856716 0.278367 
7 1 -489.882 176.219 -481.181 0.206844 0.0758305 0.916491 0.33393 
11 1 -172.075 -495.631 -178.029 0.266498 0.698255 0.32649 0.578639 
13 1 498.846 -173.599 -179.878 0.566396 0.531841 0.62385 0.0845617 
16 1 -499.304 164.851 -177.237 0.296576 0.522282 0.425891 0.676669 
18 1 188.555 172.768 -188.543 0.654628 0.40289 0.626177 0.130551 
10 1 499.12 484.539 -172.316 0.491631 0.342742 0.358697 0.715656 
12 1 156.059 -483.289 -166.239 0.406816 0.0940584 0.788773 0.4511 
14 1 -174.495 -175.451 -156.253 0.29645 0.367075 0.70573 0.528507 
15 1 163.693 -162.957 -165.347 0.439373 0.749202 0.0496105 0.493139 
17 1 -164.094 163.683 -151.137 0.475898 0.824972 0.165365 0.256119 
20 1 -166.469 489.876 145.515 0.231826 0.560858 0.610601 0.508784 
19 1 496.367 490.174 170.484 0.482046 0.675083 0.382267 0.407143 
2 1 -201.155 -490.057 494.888 0.396063 0.419583 0.603381 0.550468 
3 1 154.013 -488.792 484.103 0.607574 0.613079 0.151044 0.481843 
8 1 -179.466 148.214 479.659 0.821689 0.203203 0.512702 0.143775 
9 1 162.586 174.615 487.107 0.141188 0.266467 0.403866 0.863686 
1 1 -486.743 498.381 489.306 0.57752 0.715378 0.129721 0.371317 
ITEM: TIMESTEP
140000
ITEM: NUMBER OF ATOMS
20
ITEM: BOX BOUNDS pp pp pp
-5.0000000000000000e+02 5.0000000000000000e+02
-5.0000000000000000e+02 5.0000000000000000e+02
-5.0000000000000000e+02 5.0000000000000000e+02
ITEM: ATOMS id type x y z c_q[1] c_q[2] c_q[3] c_q[4] 
4 1 -477.042 -175.026 -496.138 0.516968 0.547048 0.303445 0.584297 
5 1 -160.872 -154.578 -488.585 0.425851 -0.0217301 0.701419 0.57113 
6 1 176.498 -161.467 -487.253 0.265788 0.290278 0.866579 0.306817 
7 1 -486.222 179.662 -480.819 0.186057 0.120087 0.91715 0.331358 
11 1 -172.567 -494.947 -180.601 0.256882 0.717405 0.290172 0.578914 
13 1 -497.038 -168.641 -176.985 0.573222 0.522099 0.617574 0.132027 
16 1 -495.408 169.339 -177.425 0.315979 0.531537 0.433853 0.655284 
18 1 187.634 172.764 -186.224 0.621372 0.387066 0.660162 0.168113 
10 1 496.918 484.858 -168.712 0.505022 0.31865 0.345987 0.723677 
12 1 154.091 -486.266 -165.52 0.414192 0.115313 0.783498 0.448641 
14 1 -169.851 -180.355 -152.128 0.269297 0.367285 0.714706 0.530825 
15 1 162.849 -161.299 -163.183 0.425993 0.766467 0.0836098 0.473357 
17 1 -159.248 166.789 -146.607 0.467273 0.835318 0.170194 0.234379 
20 1 -160.674 489.608 144.603 0.277286 0.515212 0.591371 0.554932 
19 1 489.571 491.165 174.017 0.495058 0.647464 0.381237 0.43631 
1 1 -490.936 -496.944 488.918 0.589799 0.717511 0.163521 0.33253 
2 1 -201.76 -490.102 489.865 0.374116 0.433038 0.612397 0.545422 
3 1 153.861 -488.97 478.721 0.60234 0.629711 0.176538 0.457695 
8 1 -176.278 149.259 479.772 0.835285 0.207638 0.497996 0.105763 
9 1 165.735 175.965 488.364 0.103047 0.291756 0.362556 0.879098 
ITEM: TIMESTEP
150000
ITEM: NUMBER OF ATOMS
20
ITEM: BOX BOUNDS pp pp pp
-5.0000000000000000e+02 5.0000000000000000e+02
-5.0000000000000000e+02 5.0000000000000000e+02
-5.0000000000000000e+02 5.0000000000000000e+02
ITEM: ATOMS id type x y z c_q[1] c_q[2] c_q[3] c_q[4] 
4 1 -474.389 -177.689 -493.762 0.540027 0.511074 0.305265 0.594968 
5 1 -164.428 -149.673 -490.87 0.369705 -0.00278554 0.699191 0.611917 
6 1 176.595 -160.387 -488.397 0.270392 0.26486 0.861286 0.339004 
7 1 -486.208 178.4 -480.095 0.20615 0.0786061 0.920918 0.321299 
11 1 -169.358 -498.434 -178.41 0.259391 0.751437 0.252221 0.551763 
12 1 153.723 -488.007 -168.224 0.421728 0.0967749 0.779422 0.453081 
13 1 -498.675 -170.183 -173.153 0.568899 0.491116 0.6448 0.139253 
16 1 -497.163 166.42 -176.519 0.303626 0.550675 0.440553 0.640688 
18 1 182.535 169.144 -186.585 0.621537 0.356883 0.681156 0.149506 
10 1 494.852 485.622 -173.14 0.526226 0.363791 0.34145 0.688589 
14 1 -165.02 -176.081 -148.244 0.283647 0.363452 0.731484 0.502372 
15 1 165.608 -166.034 -157.583 0.444356 0.767956 0.0910435 0.45222 
17 1 -161.332 168.042 -145.801 0.48497 0.819758 0.168808 0.253583 
20 1 -158.818 487.575 146.298 0.32986 0.478962 0.587977 0.562202 
19 1 485.842 485.939 172.689 0.479132 0.681876 0.370095 0.410497 
1 1 -492.276 -497.533 487.531 0.620759 0.70122 0.129905 0.325689 
2 1 -203.874 -487.903 496.191 0.385897 0.423934 0.608152 0.549104 
3 1 149.404 -495.822 472.128 0.591804 0.655308 0.1704 0.437381 
8 1 -173.111 150.009 480.017 0.855251 0.156801 0.465967 0.163812 
9 1 164.253 176.388 485.784 0.162185 0.287845 0.35695 0.873743 
ITEM: TIMESTEP
160000
ITEM: NUMBER OF ATOMS
20
ITEM: BOX BOUNDS pp pp pp
-5.0000000000000000e+02 5.0000000000000000e+02
-5.0000000000000000e+02 5.0000000000000000e+02
-5.0000000000000000e+02 5.0000000000000000e+02
ITEM: ATOMS id type x y z c_q[1] c_q[2] c_q[3] c_q[4] 
4 1 -474.331 -179.629 -493.31 0.565151 0.50426 0.288709 0.58564 
5 1 -162.507 -149.255 -490.277 0.411441 0.0291523 0.694054 0.590046 
6 1 177.6 -157.385 -489.81 0.289715 0.233617 0.866459 0.332771 
7 1 -487.891 174.351 -480.328 0.240456 0.0906114 0.904786 0.339607 
11 1 -172.745 499.233 -171.544 0.269011 0.756072 0.140255 0.579928 
13 1 -498.335 -169.115 -176.247 0.559381 0.503768 0.650319 0.101959 
16 1 -495.951 168.737 -178.183 0.337236 0.547996 0.437163 0.628379 
18 1 181.366 169.721 -186.99 0.593292 0.376506 0.692579 0.163044 
10 1 492.294 477.65 -178.918 0.52917 0.376793 0.356424 0.671541 
12 1 152.405 -484.995 -165.953 0.376946 0.120591 0.788999 0.469946 
14 1 -167.016 -171.852 -152.95 0.320102 0.339863 0.732864 0.494912 
15 1 160.168 -163.677 -157.743 0.470205 0.742123 0.0859222 0.46987 
17 1 -161.778 169.3 -142.027 0.505541 0.795434 0.173099 0.285919 
20 1 -164.376 488.508 150.435 0.328979 0.48552 0.560993 0.584234 
19 1 480.719 483.318 172.048 0.469288 0.682233 0.391662 0.401158 
1 1 -491.598 -498.086 490.941 0.640739 0.672003 0.129043 0.348157 
2 1 -201.601 -486.621 494.428 0.387601 0.407256 0.618859 0.548564 
3 1 152.599 -493.814 469.296 0.60239 0.645861 0.158263 0.441523 
8 1 -170.573 153.127 481.157 0.879654 0.163914 0.430257 0.119249 
9 1 165.828 177.526 480.006 0.119741 0.274997 0.367158 0.880474 
ITEM: TIMESTEP
170000
ITEM: NUMBER OF ATOMS
20
ITEM: BOX BOUNDS pp pp pp
-5.0000000000000000e+02 5.0000000000000000e+02
-5.0000000000000000e+02 5.0000000000000000e+02
-5.0000000000000000e+02 5.0000000000000000e+02
ITEM: ATOMS id type x y z c_q[1] c_q[2] c_q[3] c_q[4] 
4 1 -475.164 -179.932 -499.444 0.596307 0.513914 0.280562 0.549177 
5 1 -161.212 -143.908 -495.9 0.377978 0.111946 0.691305 0.605556 
6 1 174.09 -157.297 -492.708 0.253784 0.266307 0.883033 0.291423 
7 1 -491.573 177.49 -477.06 0.202718 0.0690671 0.916575 0.337677 
12 1 151.466 -486.168 -170.427 0.347838 0.110296 0.833046 0.415785 
13 1 -496.397 -164.961 -175.085 0.552092 0.478847 0.667437 0.142923 
16 1 -496.038 167.841 -176.497 0.331837 0.538583 0.415955 0.653295 
18 1 183.491 168.663 -186.122 0.589861 0.413256 0.676779 0.152491 
11 1 -175.395 497.278 -171.075 0.255365 0.791319 0.129312 0.54026 
10 1 495.508 482.789 -176.863 0.550026 0.33587 0.342546 0.683612 
14 1 -163.9 -172.431 -154.1 0.292467 0.373091 0.726697 0.497169 
15 1 155.718 -162.191 -158.343 0.465934 0.767735 0.115448 0.424453 
17 1 -156.198 169.57 -146.481 0.491503 0.804665 0.150578 0.297095 
20 1 -164.496 490.345 146.169 0.358393 0.461828 0.552239 0.594392 
19 1 474.747 487 168.841 0.440622 0.696501 0.394412 0.406422 
1 1 -490.325 -491.703 490.397 0.676885 0.659462 0.111746 0.307327 
2 1 -196.601 -487.983 494.475 0.395343 0.395493 0.596383 0.575861 
3 1 149.514 -492.641 469.075 0.633376 0.644523 0.141271 0.404311 
8 1 -170.802 155.813 482.297 0.868669 0.171972 0.446853 0.127131 
9 1 165.867 178.637 476.078 0.128878 0.319898 0.384185 0.856421 
ITEM: TIMESTEP
180000
ITEM: NUMBER OF ATOMS
20
ITEM: BOX BOUNDS pp pp pp
-5.0000000000000000e+02 5.0000000000000000e+02
-5.0000000000000000e+02 5.0000000000000000e+02
-5.0000000000000000e+02 5.0000000000000000e+02
ITEM: ATOMS id type x y z c_q[1] c_q[2] c_q[3] c_q[4] 
4 1 -473.926 -179.958 -499.12 0.576564 0.484396 0.263241 0.603024 
5 1 -162.939 -136.488 -493.573 0.385263 0.124844 0.685157 0.605431 
6 1 174.708 -155.078 -490.068 0.261548 0.286315 0.870038 0.304386 
7 1 -491.665 176.83 -477.874 0.18332 0.0430164 0.920022 0.343661 
12 1 154.932 -485.555 -173.971 0.325829 0.138607 0.850779 0.388328 
13 1 -495.81 -166.197 -176.254 0.561779 0.43505 0.671643 0.209836 
16 1 -496.227 171.037 -176.39 0.31831 0.573027 0.429744 0.620998 
18 1 182.009 173.502 -185.623 0.590945 0.425467 0.666038 0.161726 
11 1 -178.745 498.558 -166.711 0.2608 0.769949 0.128633 0.567993 
10 1 496.786 485.493 -177.909 0.543119 0.319675 0.3161 0.709162 
14 1 -166.952 -168.916 -160.23 0.320428 0.343291 0.70197 0.535458 
15 1 155.132 -162.951 -158.781 0.473913 0.728534 0.155146 0.469652 
17 1 -152.554 165.748 -145.126 0.496652 0.808008 0.144187 0.282257 
20 1 -163.274 487.058 151.323 0.363183 0.459219 0.575601 0.570876 