ITEM: TIMESTEP
0
ITEM: NUMBER OF ATOMS
30
ITEM: BOX BOUNDS pp pp pp
-5.0000000000000000e+02 5.0000000000000000e+02
-5.0000000000000000e+02 5.0000000000000000e+02
-5.0000000000000000e+02 5.0000000000000000e+02
ITEM: ATOMS id type x y z c_q[1] c_q[2] c_q[3] c_q[4] 
1 1 -500 -500 -500 0.549179 0.447349 0.654688 0.263943 
2 1 -250 -500 -500 0.787157 0.193345 0.227282 0.539764 
3 1 0 -500 -500 0.174156 0.560742 0.668019 0.457153 
4 1 250 -500 -500 0.849493 0.349012 0.153013 0.364883 
5 1 -500 -250 -500 0.355831 0.596336 0.35386 0.626539 
6 1 -250 -250 -500 0.48296 0.203971 0.346301 0.77796 
7 1 0 -250 -500 0.617117 0.285219 0.712777 0.172528 
8 1 250 -250 -500 0.066242 0.248632 0.384299 0.886628 
9 1 -500 0 -500 0.378199 0.642295 0.641672 0.180772 
10 1 -250 0 -500 0.065024 0.054917 0.031694 0.995867 
11 1 0 0 -500 0.803619 0.210714 0.184258 0.525209 
12 1 250 0 -500 0.301226 0.59345 0.576216 0.474399 
13 1 -500 250 -500 0.463109 0.155961 0.261976 0.832211 
14 1 -250 250 -500 0.656573 0.565832 0.411379 0.28198 
15 1 0 250 -500 0.577999 0.135349 0.764398 0.251583 
16 1 250 250 -500 0.367477 0.581497 0.718843 0.100434 
17 1 -500 -500 -250 0.863818 0.373533 0.033459 0.33641 
18 1 -250 -500 -250 0.28471 0.623861 0.343124 0.641875 
19 1 0 -500 -250 0.485037 0.085893 0.817394 0.298712 
20 1 250 -500 -250 0.057025 0.510324 0.264022 0.816462 
21 1 -500 -250 -250 0.395033 0.434001 0.413071 0.696394 
22 1 -250 -250 -250 0.843451 0.408437 0.129101 0.324196 
23 1 0 -250 -250 0.055237 0.340904 0.242771 0.90653 
24 1 250 -250 -250 0.370405 0.613719 0.009161 0.697183 
25 1 -500 0 -250 0.612045 0.55382 0.538103 0.170672 
26 1 -250 0 -250 0.541865 0.662651 0.466186 0.223488 
27 1 0 0 -250 0.411812 0.596428 0.484948 0.489398 
28 1 250 0 -250 0.319812 0.252865 0.765765 0.497376 
29 1 -500 250 -250 0.049877 0.756263 0.557737 0.338389 
30 1 -250 250 -250 0.54144 0.124798 0.679542 0.479052 
ITEM: TIMESTEP
10000
ITEM: NUMBER OF ATOMS
30
ITEM: BOX BOUNDS pp pp pp
-5.0000000000000000e+02 5.0000000000000000e+02
-5.0000000000000000e+02 5.0000000000000000e+02
-5.0000000000000000e+02 5.0000000000000000e+02
ITEM: ATOMS id type x y z c_q[1] c_q[2] c_q[3] c_q[4] 
5 1 498.463 -243.176 -496.383 0.37329 0.610297 0.362802 0.597132 
12 1 249.066 -2.56067 -498.857 0.328225 0.566052 0.620063 0.432868 
10 1 -248.84 4.43038 499.032 0.0713052 0.0734857 0.0224956 0.99449 
9 1 492.69 -0.502254 -500.082 0.350868 0.586023 0.711538 0.164872 
16 1 251.04 245.727 -499.663 0.387863 0.577457 0.710749 0.104603 
17 1 -499.211 -497.899 -249.224 0.839539 0.393639 0.0725025 0.367378 
18 1 -248.086 -497.262 -250.504 0.259729 0.605091 0.350437 0.666033 
21 1 -498.594 -248.89 -253.069 0.386357 0.453078 0.430491 0.678326 
22 1 -256.066 -248.793 -251.581 0.862201 0.375526 0.156301 0.301926 
23 1 -0.981113 -245.362 -248.373 0.0542305 0.327437 0.259408 0.906946 
24 1 253.285 -247.145 -251.649 0.33635 0.641474 -0.00968865 0.68941 
26 1 -245.257 -1.34172 -244.408 0.512591 0.65629 0.511258 0.212484 
27 1 2.15284 -2.33601 -244.735 0.450238 0.576214 0.483173 0.481464 
28 1 245.256 -2.33837 -253.519 0.3528 0.206042 0.777164 0.47864 
25 1 498.338 1.16615 -247.968 0.633535 0.545214 0.543516 0.0772414 
29 1 -495.619 247.681 -254.224 0.040734 0.741478 0.566277 0.357605 
30 1 -253.165 242.713 -252.911 0.559623 0.182803 0.652053 0.477736 
19 1 2.91982 496.3 -251.452 0.46033 0.0670342 0.832463 0.301012 
20 1 252.265 497.86 -254.394 0.0166522 0.51286 0.252812 0.820234 
2 1 -246.438 -499.692 497.285 0.818705 0.190975 0.245782 0.482538 
3 1 -1.26611 497.957 498.131 0.205676 0.590616 0.615897 0.479104 
4 1 247.803 -493.312 494.974 0.836172 0.326334 0.168017 0.407544 
1 1 496.555 -497.416 500.587 0.516497 0.477265 0.675971 0.220254 
6 1 -251.829 -251.593 499.751 0.489748 0.227536 0.305091 0.784406 
7 1 2.04081 -245.787 498.273 0.619218 0.301807 0.69643 0.201162 
8 1 253.331 -251.012 495.379 0.0904061 0.299365 0.373613 0.873282 
11 1 0.789144 -2.42741 499.802 0.799149 0.207639 0.223507 0.517968 
13 1 -500.302 248.003 498.312 0.461065 0.136271 0.257795 0.838088 
14 1 -252.332 245.751 496.216 0.646501 0.563584 0.423067 0.292273 
15 1 5.96948 247.392 497.48 0.533686 0.0686026 0.796532 0.275698 
ITEM: TIMESTEP
20000
ITEM: NUMBER OF ATOMS
30
ITEM: BOX BOUNDS pp pp pp
-5.0000000000000000e+02 5.0000000000000000e+02
-5.0000000000000000e+02 5.0000000000000000e+02
-5.0000000000000000e+02 5.0000000000000000e+02
ITEM: ATOMS id type x y z c_q[1] c_q[2] c_q[3] c_q[4] 
7 1 6.75763 -240.232 -499.452 0.631267 0.288939 0.684562 0.222241 
5 1 495.041 -241.654 -491.141 0.387864 0.63209 0.30925 0.595306 
11 1 -1.74196 -0.834526 -499.101 0.790204 0.184354 0.249976 0.528302 
9 1 492.91 -5.30503 -498.352 0.358506 0.576231 0.721801 0.135769 
14 1 -257.604 245.582 -499.662 0.668986 0.559123 0.410824 0.266577 
18 1 -248.169 -495.809 -248.853 0.267385 0.619426 0.333798 0.658329 
21 1 -499.313 -252.38 -250.377 0.422683 0.458528 0.407907 0.666861 
22 1 -254.428 -244.939 -247.435 0.872105 0.401126 0.13451 0.24584 
23 1 5.49847 -240.928 -249.186 0.0805758 0.371535 0.251517 0.890061 
24 1 255.289 -243.618 -245.822 0.38754 0.65318 0.0153473 0.650333 
28 1 247.711 -6.60493 -252.705 0.325587 0.193101 0.774468 0.506857 
26 1 -241.84 3.72304 -241.517 0.53288 0.654775 0.490188 0.216852 
27 1 4.00883 0.910814 -243.933 0.450742 0.576741 0.468917 0.494285 
25 1 496.49 10.6633 -247.543 0.665989 0.518735 0.53259 0.0609902 
29 1 -493.009 248.109 -250.274 0.0432701 0.766816 0.534547 0.352677 
30 1 -254.717 235.874 -250.112 0.509763 0.172449 0.670108 0.511232 
17 1 -496.201 499.666 -248.805 0.849014 0.367353 0.0654829 0.374084 
19 1 7.56921 494.666 -251.612 0.435657 0.0614326 0.833151 0.335095 
20 1 250.165 495.372 -261.218 0.0302281 0.51892 0.256835 0.814767 
2 1 -244.125 -496.132 498.401 0.826868 0.206401 0.249552 0.459795 
4 1 247.015 -493.145 495.292 0.808772 0.344078 0.156644 0.450511 
1 1 499.864 -497.605 498.741 0.515517 0.466329 0.685981 0.214962 
6 1 -254.075 -252.375 495.361 0.43566 0.219809 0.288045 0.823963 
8 1 245.708 -253.05 494.373 0.139978 0.320617 0.382439 0.855191 
12 1 245.252 -5.42871 498.974 0.34104 0.566234 0.586172 0.468479 
10 1 -245.67 6.55946 496.254 0.0596602 0.011086 -0.0055042 0.998142 
15 1 11.1314 251.994 499.396 0.501294 0.0987921 0.799674 0.315382 
16 1 249.084 241.484 496.361 0.389071 0.578892 0.714832 0.0502302 
13 1 497.683 250.445 499.595 0.45755 0.125196 0.254909 0.842612 
3 1 -1.70921 492.149 498.643 0.211634 0.569167 0.606241 0.513548 
ITEM: TIMESTEP
30000
ITEM: NUMBER OF ATOMS
30
ITEM: BOX BOUNDS pp pp pp
-5.0000000000000000e+02 5.0000000000000000e+02
-5.0000000000000000e+02 5.0000000000000000e+02
-5.0000000000000000e+02 5.0000000000000000e+02
ITEM: ATOMS id type x y z c_q[1] c_q[2] c_q[3] c_q[4] 
4 1 253.414 -492.564 498.53 0.829839 0.370589 0.156369 0.386754 
7 1 11.2417 -239.892 -499.656 0.656954 0.261379 0.668132 0.231714 
5 1 491.329 -239.029 -490.296 0.386128 0.635056 0.288991 0.603401 
9 1 492.572 -10.5819 -499.575 0.398212 0.588115 0.689388 0.14245 
14 1 -261.639 243.396 -499.394 0.634693 0.575054 0.447764 0.256876 
18 1 -248.767 -492.547 -254.514 0.280096 0.625509 0.308667 0.659552 
22 1 -250.87 -241.086 -250.141 0.874502 0.414924 0.108906 0.226326 
23 1 1.10947 -240.432 -250.206 0.0528317 0.375697 0.271532 0.884495 
24 1 251.779 -243.098 -247.311 0.386917 0.661752 0.00191492 0.642165 
21 1 494.463 -245.615 -254.502 0.43803 0.413938 0.468953 0.645653 
28 1 245.486 -11.6988 -255.478 0.350428 0.148876 0.785276 0.488239 
26 1 -242.228 5.29813 -241.993 0.546648 0.629637 0.491406 0.251503 
27 1 1.72045 0.599121 -244.33 0.435552 0.593841 0.471607 0.485011 
25 1 497.324 10.5386 -247.582 0.646692 0.566199 0.505092 0.0780394 
29 1 -493.738 249.154 -253.357 0.0639327 0.784068 0.516026 0.338921 
30 1 -252.985 233.605 -251.641 0.536342 0.169189 0.655791 0.503637 
17 1 -493.824 -499.633 -247.452 0.826162 0.40864 0.0366507 0.386169 
19 1 1.90952 494.452 -254.604 0.492595 0.00423238 0.813705 0.308572 
20 1 249.828 495.878 -265.017 0.017682 0.569551 0.216007 0.792868 
2 1 -244.088 -498.176 499.896 0.822093 0.250177 0.254157 0.443822 
1 1 499.756 -496.879 496.19 0.582205 0.4539 0.640643 0.21116 
6 1 -253.357 -246.326 498.727 0.428979 0.24984 0.304185 0.813036 
8 1 246.396 -248.473 490.822 0.139296 0.360027 0.3748 0.842913 
12 1 244.709 -4.56897 495.949 0.358346 0.571852 0.574861 0.462718 
10 1 -240.62 9.00089 493.655 0.052142 -0.00484043 -0.0400055 0.997826 
11 1 -3.7627 0.0490162 499.526 0.770598 0.193383 0.283623 0.536973 
13 1 -496.833 249.654 495.43 0.461895 0.125934 0.305848 0.822952 
15 1 13.5238 252.133 494.798 0.551428 0.145449 0.751126 0.332537 
16 1 247.401 238.817 497.387 0.393163 0.577013 0.715454 0.0245792 
3 1 -1.76966 496.216 493.727 0.145291 0.581711 0.603294 0.525871 
ITEM: TIMESTEP
40000
ITEM: NUMBER OF ATOMS
30
ITEM: BOX BOUNDS pp pp pp
-5.0000000000000000e+02 5.0000000000000000e+02
-5.0000000000000000e+02 5.0000000000000000e+02
-5.0000000000000000e+02 5.0000000000000000e+02
ITEM: ATOMS id type x y z c_q[1] c_q[2] c_q[3] c_q[4] 
7 1 9.76872 -236.573 -493.995 0.654809 0.248653 0.662182 0.266293 
5 1 490.264 -239.959 -489.77 0.404127 0.615886 0.280962 0.615164 
11 1 -1.69204 4.67706 -495.607 0.758675 0.186945 0.269976 0.562651 
17 1 -491.768 -499.774 -250.565 0.817077 0.435061 0.0326794 0.37688 
18 1 -247.696 -493.551 -253.139 0.277618 0.635137 0.317331 0.647171 
22 1 -248.941 -238.442 -250.947 0.877988 0.377535 0.0536532 0.289355 
23 1 6.09776 -244.502 -252.82 0.0134469 0.359277 0.294506 0.885441 
24 1 246.679 -246.077 -243.145 0.382322 0.699814 0.0171939 0.603154 
21 1 496.794 -247.416 -253.832 0.427981 0.419613 0.441258 0.667869 
26 1 -239.657 -2.97953 -237.255 0.562752 0.632664 0.464308 0.25974 
28 1 244.585 -11.0714 -258.091 0.344536 0.118343 0.776344 0.514374 
25 1 -499.613 13.2252 -243.348 0.644954 0.578699 0.492247 0.0826719 
27 1 -1.69535 4.29492 -243.792 0.410773 0.620301 0.472769 0.47221 
29 1 -495.421 250.551 -251.796 0.0874626 0.769117 0.529262 0.347405 
30 1 -250.54 234.618 -251.454 0.5811 0.148432 0.631942 0.490856 
19 1 7.71198 495.623 -254.817 0.479558 0.023738 0.816971 0.319404 
20 1 249.717 496.335 -260.03 0.0477219 0.565765 0.219526 0.793373 
1 1 -497.933 -498.941 -499.765 0.554052 0.4831 0.665319 0.130347 
2 1 -243.053 -497.157 499.354 0.826786 0.25715 0.246385 0.435422 
4 1 256.078 -495.507 498.832 0.808837 0.401736 0.174295 0.392443 
6 1 -250.088 -245.752 -499.905 0.427634 0.238469 0.303673 0.81734 
8 1 256.394 -248.582 490.502 0.0810399 0.413705 0.355008 0.834416 
12 1 246.622 -8.33746 499.938 0.334746 0.60765 0.557574 0.45587 
9 1 487.744 -9.13792 497.417 0.439732 0.589792 0.669207 0.104609 
10 1 -241.152 5.30808 494.404 0.0241048 -0.0296494 -0.0898419 0.995223 
13 1 -493.016 250.442 498.092 0.440974 0.112805 0.317538 0.831857 
14 1 -257.364 240.658 497.962 0.611992 0.599946 0.450834 0.249557 
15 1 14.9023 249.283 493.288 0.554767 0.164402 0.745552 0.330693 
16 1 243.272 236.485 496.019 0.398541 0.568297 0.716556 0.0689271 
3 1 -1.49434 490.123 495.845 0.102687 0.561609 0.607199 0.552594 
ITEM: TIMESTEP
50000
ITEM: NUMBER OF ATOMS
30
ITEM: BOX BOUNDS pp pp pp
-5.0000000000000000e+02 5.0000000000000000e+02
-5.0000000000000000e+02 5.0000000000000000e+02
-5.0000000000000000e+02 5.0000000000000000e+02
ITEM: ATOMS id type x y z c_q[1] c_q[2] c_q[3] c_q[4] 
1 1 -497.078 -496.107 -496.483 0.594192 0.465252 0.644047 0.125219 
2 1 -245.376 -496.376 -499.139 0.798483 0.30962 0.211907 0.470803 
6 1 -246.557 -243.86 -495.234 0.453059 0.284878 0.29188 0.792709 
7 1 9.27244 -234.342 -494.397 0.645523 0.214603 0.671861 0.292998 
5 1 492.322 -243.371 -486.994 0.39597 0.591187 0.302617 0.634137 
11 1 1.69237 7.18388 -494.442 0.742451 0.21307 0.239539 0.588208 
17 1 -492.123 -499.615 -250.525 0.814105 0.423819 0.0762404 0.389612 
18 1 -242.635 -495.402 -257.072 0.231298 0.583782 0.381619 0.678283 
22 1 -247.025 -235.649 -256.596 0.883931 0.356463 0.05899 0.29685 
23 1 7.47981 -245.113 -253.977 -0.000648059 0.314292 0.302317 0.899902 
24 1 245.742 -241.736 -240.751 0.416841 0.706337 0.000257976 0.57213 
21 1 496.021 -246.134 -253.175 0.400196 0.433408 0.440736 0.676574 
26 1 -238.164 -4.11502 -241.738 0.576464 0.658848 0.409288 0.257084 
28 1 246.953 -18.373 -263.272 0.373994 0.114383 0.746492 0.538326 
27 1 -1.74014 8.1211 -242.063 0.414195 0.625762 0.47734 0.457177 
25 1 498.515 8.38202 -236.127 0.649501 0.574003 0.475066 0.151598 
29 1 -489.813 247.003 -252.443 0.134379 0.756616 0.51514 0.379611 
30 1 -250.149 234.914 -259.342 0.609625 0.155082 0.628852 0.457002 
19 1 10.8505 494.365 -256.447 0.440135 0.0188257 0.8251 0.353747 
20 1 247.239 493.269 -255.092 0.0790134 0.55971 0.197324 0.800965 
4 1 257.182 -491.521 497.42 0.828543 0.393334 0.12144 0.379549 
8 1 259.357 -241.971 494.563 0.0790069 0.392513 0.377395 0.835024 
10 1 -233.822 -1.60737 493.451 0.021748 -0.0472281 -0.135202 0.989453 
12 1 254.222 -10.9864 497.074 0.340208 0.58736 0.585524 0.443203 
9 1 482.749 -8.98737 498.111 0.382183 0.562846 0.725663 0.102732 
13 1 -488.566 251.199 497.45 0.437775 0.14882 0.284455 0.839816 
14 1 -253.621 239.637 -498.924 0.59596 0.588323 0.466445 0.284845 
15 1 9.94815 251.755 492.807 0.534221 0.169004 0.738452 0.375146 
16 1 245.681 241.524 491.555 0.440869 0.551155 0.705678 0.0623051 
3 1 1.73621 492.127 498.291 0.0887159 0.584856 0.612189 0.524688 
ITEM: TIMESTEP
60000
ITEM: NUMBER OF ATOMS
30
ITEM: BOX BOUNDS pp pp pp
-5.0000000000000000e+02 5.0000000000000000e+02
-5.0000000000000000e+02 5.0000000000000000e+02
-5.0000000000000000e+02 5.0000000000000000e+02
ITEM: ATOMS id type x y z c_q[1] c_q[2] c_q[3] c_q[4] 
6 1 -246.364 -244.337 -498.904 0.446039 0.250073 0.339332 0.789536 
7 1 8.0682 -236.96 -492.097 0.642177 0.255281 0.687124 0.224281 
5 1 492.767 -241.527 -482.293 0.377469 0.576932 0.349404 0.634495 
11 1 3.31225 4.53225 -493.318 0.735123 0.200834 0.233485 0.603941 
14 1 -252.312 239.86 -498.541 0.588493 0.60391 0.45513 0.286051 
1 1 -499.368 498.655 -499.34 0.54064 0.480088 0.682038 0.109765 
3 1 -0.0197108 490.753 -498.727 0.09943 0.6017 0.591694 0.527227 
17 1 -492.722 -499.784 -251 0.843014 0.410215 0.0703391 0.340739 
18 1 -247.998 -490.805 -259.745 0.198814 0.627407 0.351038 0.666037 
21 1 -499.999 -241.814 -253.259 0.409084 0.435457 0.44912 0.664318 
22 1 -245.48 -246.771 -257.748 0.869418 0.372704 0.0509214 0.32033 
23 1 5.42049 -247.985 -248.473 0.0104014 0.281259 0.304811 0.909877 
24 1 239.575 -242.14 -243.888 0.406336 0.692338 -0.0506606 0.594131 
26 1 -235.569 -10.0884 -244.992 0.540963 0.661015 0.412426 0.316739 
28 1 249.353 -21.3969 -265.896 0.344591 0.192754 0.7606 0.515355 
27 1 -2.35118 8.93247 -242.088 0.402806 0.610627 0.510896 0.451517 
25 1 495.736 2.85516 -234.087 0.67961 0.573382 0.439763 0.126383 
29 1 -491.845 244.379 -254.361 0.140439 0.776018 0.497543 0.361282 
30 1 -249.262 232.079 -255.962 0.625726 0.154911 0.613645 0.455971 
19 1 9.64011 492.603 -255.102 0.402019 -0.0473498 0.835746 0.371035 
20 1 242.174 492.623 -254.349 0.151187 0.584574 0.172359 0.778272 
2 1 -249.495 -497.876 498.602 0.802349 0.329966 0.209255 0.451189 
4 1 257.533 -494.808 495.894 0.819561 0.41348 0.135844 0.372693 
8 1 262.049 -238.498 492.59 0.0925781 0.419454 0.388193 0.815349 
10 1 -226.089 -1.16261 494.767 0.0710244 -0.0802439 -0.135922 0.984907 
12 1 261.188 -13.585 497.941 0.343173 0.598697 0.538346 0.483712 
9 1 482.275 -13.7709 498.041 0.353297 0.549455 0.752416 0.0845568 
13 1 -483.847 254.565 498.746 0.405368 0.156368 0.271594 0.858756 
15 1 10.1052 254.996 494.713 0.522384 0.146836 0.749531 0.379154 
16 1 245.936 244.809 494.027 0.494682 0.479444 0.719895 0.0847032 
ITEM: TIMESTEP
70000
ITEM: NUMBER OF ATOMS
30
ITEM: BOX BOUNDS pp pp pp
-5.0000000000000000e+02 5.0000000000000000e+02
-5.0000000000000000e+02 5.0000000000000000e+02
-5.0000000000000000e+02 5.0000000000000000e+02
ITEM: ATOMS id type x y z c_q[1] c_q[2] c_q[3] c_q[4] 
7 1 6.54379 -236.804 -493.261 0.607156 0.269239 0.701546 0.258273 
5 1 490.525 -236.097 -484.603 0.372735 0.579412 0.357724 0.630384 
9 1 483.435 -14.4172 -496.263 0.325771 0.536194 0.774812 0.0776885 
11 1 1.83286 1.63198 -494.081 0.735442 0.228125 0.244722 0.589233 
14 1 -248.484 242.372 -498.893 0.605351 0.607499 0.413789 0.305408 
15 1 11.1645 251.647 -496.02 0.529479 0.152363 0.775211 0.309006 
3 1 -0.209286 491.247 -499.098 0.11844 0.61206 0.560196 0.545467 
17 1 -494.484 -498.595 -248.496 0.849885 0.36812 0.040634 0.374876 
18 1 -251.784 -492.121 -263.421 0.199159 0.580695 0.380233 0.691774 
22 1 -243.753 -242.26 -265.738 0.872409 0.350946 0.0671072 0.33352 
23 1 3.71656 -253.038 -248.062 0.0165442 0.283579 0.291115 0.913543 
24 1 238.584 -245.76 -242.639 0.397301 0.67592 -0.0372158 0.619596 
21 1 494.459 -242.37 -249.553 0.431346 0.447164 0.463347 0.631897 
26 1 -236.851 -13.4695 -248.926 0.545941 0.657806 0.396664 0.334511 
28 1 249.007 -20.2982 -268.758 0.352865 0.162899 0.754528 0.528807 
25 1 493.508 -0.618092 -232.819 0.691034 0.566252 0.441905 0.0809377 
27 1 -3.53177 4.79866 -244.411 0.389731 0.620414 0.535385 0.420189 
29 1 -491.015 238.882 -251.603 0.127579 0.783844 0.514638 0.323202 
30 1 -250.137 231.675 -259.891 0.656941 0.126528 0.602442 0.435296 
19 1 5.03944 494.832 -259.39 0.427023 -0.0316396 0.829468 0.358655 
20 1 240.321 490.117 -254.262 0.138975 0.582271 0.157055 0.785481 
1 1 -497.767 -497.009 498.616 0.552158 0.491412 0.654819 0.157629 
2 1 -249.845 -498.088 497.423 0.805795 0.32905 0.21562 0.442638 
4 1 256.656 -496.867 495.219 0.841462 0.412358 0.10717 0.332291 
6 1 -249.437 -245.583 497.679 0.432129 0.223923 0.316183 0.814341 
8 1 263.374 -231.373 487.205 0.033823 0.420516 0.352067 0.835507 
12 1 263.082 -13.5346 498.071 0.343021 0.586574 0.530109 0.507201 
10 1 -230.973 2.25665 492.786 0.0448722 -0.0841201 -0.147002 0.984531 
13 1 -479.411 251.986 495.909 0.352949 0.152605 0.293291 0.875282 
16 1 241.827 234.684 494.492 0.506587 0.475365 0.711589 0.105066 
ITEM: TIMESTEP
80000
ITEM: NUMBER OF ATOMS
30
ITEM: BOX BOUNDS pp pp pp
-5.0000000000000000e+02 5.0000000000000000e+02
-5.0000000000000000e+02 5.0000000000000000e+02
-5.0000000000000000e+02 5.0000000000000000e+02
ITEM: ATOMS id type x y z c_q[1] c_q[2] c_q[3] c_q[4] 
7 1 6.02949 -242.413 -488.47 0.585515 0.262424 0.729158 0.237982 
5 1 490.626 -238.163 -486.975 0.365676 0.627565 0.343897 0.59513 
11 1 3.44403 -1.62001 -498.182 0.713971 0.213968 0.304217 0.593224 
9 1 483.431 -12.1362 -496.943 0.304611 0.545005 0.779003 0.0577589 
14 1 -245.065 243.837 -491.904 0.599359 0.574459 0.443997 0.337094 
15 1 12.0443 249.543 -495.793 0.560444 0.143449 0.740454 0.34213 
3 1 5.44202 488.68 -496.518 0.175874 0.576478 0.603269 0.52231 
17 1 -490.465 -495.786 -247.095 0.872578 0.345412 0.0156459 0.345042 
18 1 -250.932 -488.238 -265.802 0.196823 0.605533 0.403296 0.657224 
22 1 -241.502 -239.862 -268.035 0.862162 0.380283 0.0512821 0.330805 
23 1 -1.61184 -251.613 -246.762 0.0669883 0.325505 0.338892 0.880177 
24 1 240.272 -242.126 -243.921 0.414697 0.645171 -0.00497508 0.641682 
21 1 499.253 -249.059 -248.221 0.434907 0.44077 0.422188 0.662069 
26 1 -239.917 -14.654 -247.986 0.537386 0.654602 0.395193 0.355716 
27 1 -4.64548 -0.0800091 -240.695 0.368911 0.617417 0.542409 0.434158 
28 1 252.792 -20.7352 -267.655 0.33025 0.13769 0.787911 0.50117 
25 1 499.064 4.45399 -235.117 0.689645 0.5728 0.435098 0.0835426 
29 1 -492.739 242.514 -255.06 0.12577 0.771733 0.470105 0.409404 
30 1 -249.122 227.366 -261.561 0.676777 0.0959893 0.587986 0.432471 
19 1 1.03414 493.52 -261.35 0.420973 -0.00854206 0.82948 0.366977 
20 1 239.615 493.091 -252.568 0.121804 0.598535 0.149598 0.777522 
2 1 -254.968 -498.638 498.027 0.781779 0.350535 0.234373 0.459365 
4 1 257.46 -492.649 496.066 0.857226 0.382569 0.030145 0.343359 
1 1 499.533 -499.325 498.976 0.54006 0.482226 0.674798 0.142969 
6 1 -248.857 -242.43 495.13 0.395059 0.265674 0.32691 0.816379 
8 1 264.137 -231.881 490.228 0.0158919 0.437477 0.36007 0.823839 
10 1 -233.741 -1.57617 490.727 0.0351351 -0.0170482 -0.139116 0.989506 
12 1 267.721 -10.5164 498.337 0.310685 0.615032 0.529628 0.494677 
13 1 -478.357 254.568 495.289 0.323683 0.163257 0.362497 0.858588 
16 1 234.741 230.05 492.038 0.483574 0.490635 0.715755 0.114575 
ITEM: TIMESTEP
90000
ITEM: NUMBER OF ATOMS
30
ITEM: BOX BOUNDS pp pp pp
-5.0000000000000000e+02 5.0000000000000000e+02
-5.0000000000000000e+02 5.0000000000000000e+02
-5.0000000000000000e+02 5.0000000000000000e+02
ITEM: ATOMS id type x y z c_q[1] c_q[2] c_q[3] c_q[4] 
7 1 2.79878 -245.973 -486.103 0.609789 0.259545 0.712626 0.230125 
5 1 483.912 -238.807 -489.301 0.286004 0.632082 0.35894 0.624369 
11 1 4.8963 -3.67599 -495.151 0.680189 0.221876 0.314961 0.62363 
13 1 -476.523 260.365 -497.635 0.318493 0.139191 0.337769 0.8747 
14 1 -247.793 236.904 -497.899 0.618601 0.523427 0.443062 0.383475 
15 1 17.8842 251.059 -498.921 0.563379 0.0956645 0.72726 0.380191 
3 1 -6.26887 491.628 -492.856 0.181346 0.559907 0.61624 0.523322 
17 1 -485.284 -492.63 -246.771 0.863143 0.359246 -0.0234761 0.354085 
18 1 -250.612 -490.051 -264.642 0.197441 0.642665 0.407884 0.617761 
21 1 498.667 -252.57 -244.207 0.467774 0.456696 0.369529 0.660352 
22 1 -240.168 -239.721 -263.219 0.859335 0.374907 0.0562886 0.343249 
23 1 1.67284 -248.388 -245.465 0.0901245 0.290516 0.350739 0.885698 
24 1 237.576 -238.523 -238.546 0.398357 0.650454 0.0297231 0.646017 
26 1 -234.853 -13.5387 -247.956 0.496642 0.677761 0.40898 0.355982 
27 1 -6.77768 -2.83997 -239.551 0.331586 0.6624 0.527526 0.415924 
28 1 253.887 -22.5541 -262.978 0.283713 0.144985 0.805236 0.500081 
25 1 499.02 -0.485028 -238.816 0.701738 0.560816 0.427522 0.101364 
29 1 -490.495 240.143 -255.159 0.13824 0.757329 0.478421 0.422441 
30 1 -252.377 228.098 -260.098 0.670885 0.0854928 0.615513 0.404658 
19 1 -2.73034 492.171 -259.872 0.379761 -0.0385314 0.829926 0.406842 
20 1 241.306 490.319 -255.896 0.113392 0.583171 0.173107 0.785549 
4 1 254.103 -493.42 497.186 0.854968 0.353654 0.0173662 0.37902 
1 1 496.225 -496.949 495.371 0.522005 0.500067 0.678321 0.13162 
6 1 -247.03 -246.018 493.96 0.403919 0.217536 0.334614 0.823141 
8 1 265.204 -236.78 490.459 5.79918e-05 0.423973 0.310054 0.850949 
10 1 -233.161 -3.55531 488.99 -0.0057997 0.0206706 -0.156743 0.987406 
12 1 264.386 -14.602 494.149 0.297382 0.567321 0.583074 0.499735 
9 1 488.192 -13.6499 499.442 0.294935 0.558948 0.77278 0.0583201 
16 1 229.771 225.106 492.871 0.495755 0.422487 0.749429 0.118693 
2 1 -254.386 493.131 497.519 0.780888 0.32718 0.229541 0.480082 
ITEM: TIMESTEP
100000
ITEM: NUMBER OF ATOMS
30
ITEM: BOX BOUNDS pp pp pp
-5.0000000000000000e+02 5.0000000000000000e+02
-5.0000000000000000e+02 5.0000000000000000e+02
-5.0000000000000000e+02 5.0000000000000000e+02
ITEM: ATOMS id type x y z c_q[1] c_q[2] c_q[3] c_q[4] 
7 1 2.78352 -247.476 -489.055 0.616017 0.250918 0.721489 0.192397 
5 1 485.338 -237.783 -488.796 0.321319 0.632651 0.308967 0.633282 
11 1 16.9669 -3.18515 -491.513 0.641235 0.230261 0.318002 0.659297 
13 1 -474.416 262.111 -497.455 0.324616 0.072495 0.31066 0.890427 
14 1 -250.882 238.378 -494.695 0.624635 0.520334 0.427453 0.395433 
15 1 18.9998 252.003 -498.339 0.554618 0.123339 0.738777 0.362484 
2 1 -259.638 493.681 -499.952 0.76482 0.305796 0.279237 0.493523 
3 1 -3.88462 488.129 -487.604 0.181223 0.597226 0.619567 0.476042 
17 1 -484.684 -495.861 -246.493 0.888102 0.297325 0.0158977 0.350171 
18 1 -253.057 -487.411 -264.011 0.207541 0.633016 0.36539 0.65016 
22 1 -239.338 -239.623 -262.733 0.867451 0.396287 0.0427279 0.297757 
23 1 -2.37669 -248.966 -248.596 0.0359269 0.290615 0.357828 0.886686 
24 1 234.49 -242.256 -238.378 0.367249 0.606111 0.0203372 0.705226 
21 1 498.118 -251.951 -239.125 0.4866 0.415623 0.394041 0.659704 
26 1 -238.575 -14.2746 -250.509 0.447164 0.711351 0.385645 0.381185 
27 1 -6.27116 -3.19074 -244.318 0.275225 0.64147 0.580818 0.418828 
28 1 259.332 -28.7452 -273.642 0.329556 0.1618 0.773506 0.516625 
25 1 495.44 -3.38615 -238.212 0.682778 0.546358 0.47366 0.104655 
29 1 -490.161 241.291 -257.824 0.14591 0.723664 0.490763 0.462787 
30 1 -254.592 224.749 -258.755 0.677318 0.141837 0.598485 0.403656 
19 1 -2.9702 494.421 -262.607 0.414172 -0.00777434 0.8174 0.400323 
20 1 244.407 489.242 -258.637 0.10075 0.592703 0.19596 0.774695 
4 1 255.92 -489.76 492.147 0.85783 0.377825 0.0357216 0.346554 
1 1 492.364 -496.869 495.881 0.53911 0.524312 0.649425 0.112714 
6 1 -248.64 -245.349 493.757 0.388389 0.248109 0.343965 0.818098 
8 1 264.024 -237.139 487.451 0.0147073 0.37614 0.315939 0.870911 
10 1 -235.879 -5.16318 487.002 0.0409227 0.0180905 -0.144211 0.988535 
12 1 257.951 -22.0925 496.732 0.303852 0.552587 0.54333 0.554179 
9 1 490.801 -16.2621 499.556 0.29782 0.56682 0.76446 0.0749655 
16 1 230.153 229.152 494.692 0.493502 0.459144 0.731782 0.100684 
ITEM: TIMESTEP
110000
ITEM: NUMBER OF ATOMS
30
ITEM: BOX BOUNDS pp pp pp
-5.0000000000000000e+02 5.0000000000000000e+02
-5.0000000000000000e+02 5.0000000000000000e+02
-5.0000000000000000e+02 5.0000000000000000e+02
ITEM: ATOMS id type x y z c_q[1] c_q[2] c_q[3] c_q[4] 
6 1 -253.638 -252.515 -498.493 0.389538 0.235254 0.345781 0.82058 
7 1 6.16232 -245.502 -490.094 0.674239 0.224203 0.674602 0.200118 
5 1 485.157 -241.17 -490.461 0.336608 0.637478 0.302358 0.623616 
11 1 18.5024 -0.357821 -493.13 0.664748 0.204577 0.281541 0.661055 
13 1 -470.699 261.376 -494.152 0.343606 0.0838643 0.346626 0.868765 
14 1 -254.611 240.034 -493.812 0.630745 0.505533 0.419725 0.412829 
15 1 16.641 252.764 -496.021 0.569312 0.139072 0.718836 0.373922 
3 1 -3.18143 490.376 -487.857 0.178868 0.575319 0.641854 0.474382 
17 1 -485.007 -497.97 -249.396 0.882333 0.319833 0.0210414 0.344606 
18 1 -255.143 -489.038 -255.899 0.176714 0.618339 0.382338 0.663511 
22 1 -238.406 -239.686 -261.174 0.885754 0.372828 0.0500332 0.271912 
23 1 -2.5869 -248.578 -252.12 0.0827362 0.338443 0.331459 0.876781 
24 1 227.394 -237.121 -232.633 0.365251 0.598931 0.05476 0.710545 
21 1 487.779 -250.991 -238.048 0.479138 0.448081 0.435881 0.616164 
25 1 -498.699 -2.46077 -235.557 0.654322 0.568881 0.492873 0.07289 
26 1 -242.449 -12.0623 -245.596 0.441105 0.723588 0.382872 0.367771 
27 1 -9.61712 -7.56588 -244.918 0.311283 0.643747 0.577479 0.393966 
28 1 261.615 -33.9959 -272.376 0.342393 0.2145 0.768537 0.496092 
29 1 -492.766 243.568 -259.891 0.161033 0.722393 0.465266 0.485534 
30 1 -257.457 222.665 -263.719 0.687998 0.13384 0.592967 0.396403 
19 1 -3.92548 493.833 -263.406 0.395325 0.00800578 0.836284 0.379846 
20 1 246.695 487.546 -260.274 0.0936667 0.593775 0.189733 0.776312 
4 1 262.805 -492.61 495.067 0.836636 0.393414 -0.0117254 0.380957 
1 1 496.185 -499.195 -499.374 0.543926 0.469298 0.681923 0.137428 
8 1 263.165 -236.27 489.22 0.0267715 0.382324 0.297998 0.874248 
10 1 -240.672 -6.36067 486.808 0.0538506 0.0386474 -0.141623 0.987699 
12 1 257.214 -28.7455 498.311 0.316342 0.534955 0.559439 0.548434 
9 1 487.087 -15.3356 494.789 0.345754 0.545014 0.752815 0.129166 
16 1 229.598 232.191 494.387 0.51207 0.42662 0.742668 0.0649897 
2 1 -258.481 491.409 500.095 0.746179 0.330083 0.308332 0.489074 
ITEM: TIMESTEP
120000
ITEM: NUMBER OF ATOMS
30
ITEM: BOX BOUNDS pp pp pp
-5.0000000000000000e+02 5.0000000000000000e+02
-5.0000000000000000e+02 5.0000000000000000e+02
-5.0000000000000000e+02 5.0000000000000000e+02
ITEM: ATOMS id type x y z c_q[1] c_q[2] c_q[3] c_q[4] 
6 1 -257.814 -250.889 -493.402 0.3386 0.28667 0.36569 0.818194 
7 1 5.35119 -242.438 -492.428 0.631592 0.252705 0.714128 0.165085 
5 1 486.273 -241.201 -490.056 0.374814 0.626829 0.290284 0.618332 
11 1 23.5638 -7.71376 -491.615 0.658794 0.23344 0.278752 0.65863 
13 1 -473.232 260.354 -492.541 0.335654 0.0858016 0.376835 0.859052 
14 1 -251.177 240.183 -490.338 0.598912 0.511945 0.454395 0.415623 
15 1 15.3291 250.418 -496.731 0.610464 0.164989 0.692406 0.347399 
3 1 -8.37685 489.1 -486.953 0.185879 0.511188 0.637245 0.545944 
17 1 -490.019 -497.861 -249.322 0.884389 0.352514 -0.0107356 0.305736 
18 1 -259.388 -490.117 -253.282 0.178177 0.632234 0.342131 0.671922 
22 1 -243.473 -245.613 -260.462 0.863579 0.398487 0.0786456 0.298756 
23 1 -4.28492 -250.629 -251.155 0.0686842 0.325913 0.336082 0.880972 
24 1 227.879 -234.775 -232.278 0.323221 0.593819 0.0453041 0.735428 
21 1 488.978 -248.394 -237.037 0.480913 0.426029 0.390596 0.659285 
25 1 -496.793 -0.802274 -235.062 0.633229 0.614734 0.466393 0.0600107 
26 1 -235.359 -7.59811 -248.92 0.430685 0.76429 0.341785 0.336979 
27 1 -9.44356 -7.85548 -244.38 0.33781 0.626248 0.587424 0.385526 
28 1 259.969 -42.5419 -274.545 0.381099 0.16809 0.755016 0.506419 
29 1 -488.604 241.422 -257.951 0.197035 0.76937 0.424857 0.434446 
30 1 -254.465 221.927 -266.782 0.70927 0.0765332 0.569749 0.408001 
19 1 -9.2972 496.417 -255.678 0.374691 -0.00870586 0.832319 0.408382 
20 1 246.455 484.518 -258.797 0.0687795 0.577835 0.175774 0.794027 
4 1 268.727 -490.492 496.822 0.848868 0.37948 -0.0450474 0.365225 
1 1 494.241 499.81 498.554 0.521644 0.467041 0.703049 0.124432 
8 1 271.24 -236.402 493.911 0.0395907 0.401329 0.281536 0.870692 
10 1 -239.181 -2.69882 484.912 0.0290086 0.04467 -0.166325 0.984631 
12 1 255.937 -32.2126 498.977 0.328143 0.505733 0.576329 0.551725 
9 1 485.964 -10.4458 491.951 0.359145 0.52007 0.761363 0.144461 
16 1 225.064 227.554 492.978 0.53967 0.427036 0.723966 0.0476405 
2 1 -257.842 495.926 497.484 0.76307 0.331707 0.338973 0.43908 
ITEM: TIMESTEP
130000
ITEM: NUMBER OF ATOMS
30
ITEM: BOX BOUNDS pp pp pp
-5.0000000000000000e+02 5.0000000000000000e+02
-5.0000000000000000e+02 5.0000000000000000e+02
-5.0000000000000000e+02 5.0000000000000000e+02
ITEM: ATOMS id type x y z c_q[1] c_q[2] c_q[3] c_q[4] 
6 1 -259.93 -245.957 -498.085 0.323668 0.265255 0.388058 0.821151 
7 1 0.748563 -238.365 -491.997 0.637552 0.248629 0.708825 0.17111 
5 1 483.683 -238.899 -495.887 0.394349 0.6137 0.290888 0.619068 
11 1 24.0583 -9.77171 -488.969 0.638801 0.226468 0.256927 0.688937 
13 1 -475.654 259.766 -492.077 0.348615 0.0608399 0.351521 0.866717 