LAMMPS data file

20 atoms
20 ellipsoids
0 bonds
0 angles
0 dihedrals

1 atom types
0 bond types
0 angle types
0 dihedral types

-500.000000 500.000000 xlo xhi
-500.000000 500.000000 ylo yhi
-500.000000 500.000000 zlo zhi

Masses

1 203166.000000

Atoms

1 1 -500.000000 -500.000000 -500.000000 1 1.000000 3 0.000000
2 1 -166.666667 -500.000000 -500.000000 1 1.000000 4 0.000000
3 1 166.666667 -500.000000 -500.000000 1 1.000000 5 0.000000
4 1 -500.000000 -166.666667 -500.000000 1 1.000000 6 0.000000
5 1 -166.666667 -166.666667 -500.000000 1 1.000000 7 0.000000
6 1 166.666667 -166.666667 -500.000000 1 1.000000 8 0.000000
7 1 -500.000000 166.666667 -500.000000 1 1.000000 9 0.000000
8 1 -166.666667 166.666667 -500.000000 1 1.000000 10 0.000000
9 1 166.666667 166.666667 -500.000000 1 1.000000 11 0.000000
10 1 -500.000000 -500.000000 -166.666667 1 1.000000 12 0.000000
11 1 -166.666667 -500.000000 -166.666667 1 1.000000 13 0.000000
12 1 166.666667 -500.000000 -166.666667 1 1.000000 14 0.000000
13 1 -500.000000 -166.666667 -166.666667 1 1.000000 15 0.000000
14 1 -166.666667 -166.666667 -166.666667 1 1.000000 16 0.000000
15 1 166.666667 -166.666667 -166.666667 1 1.000000 17 0.000000
16 1 -500.000000 166.666667 -166.666667 1 1.000000 18 0.000000
17 1 -166.666667 166.666667 -166.666667 1 1.000000 19 0.000000
18 1 166.666667 166.666667 -166.666667 1 1.000000 20 0.000000
19 1 -500.000000 -500.000000 166.666667 1 1.000000 21 0.000000
20 1 -166.666667 -500.000000 166.666667 1 1.000000 22 0.000000

Ellipsoids

1 55.000000 110.000000 110.000000 0.442102 0.806180 0.022016 0.392600
2 55.000000 110.000000 110.000000 0.274870 0.056499 0.656559 0.700132
3 55.000000 110.000000 110.000000 0.305717 0.469861 0.389178 0.730964
4 55.000000 110.000000 110.000000 0.038072 0.642284 0.549301 0.533189
5 55.000000 110.000000 110.000000 0.026295 0.307438 0.646920 0.697341
6 55.000000 110.000000 110.000000 0.754191 0.349645 0.555789 0.006548
7 55.000000 110.000000 110.000000 0.815839 0.152162 0.303431 0.468170
8 55.000000 110.000000 110.000000 0.385612 0.700898 0.523471 0.293298
9 55.000000 110.000000 110.000000 0.421625 0.670884 0.060865 0.606995
10 55.000000 110.000000 110.000000 0.052053 0.811674 0.499760 0.297853
11 55.000000 110.000000 110.000000 0.288776 0.083061 0.179423 0.936759
12 55.000000 110.000000 110.000000 0.161887 0.544604 0.485869 0.664176
13 55.000000 110.000000 110.000000 0.612545 0.481688 0.511764 0.361749
14 55.000000 110.000000 110.000000 0.315387 0.302359 0.646335 0.625588
15 55.000000 110.000000 110.000000 0.586013 0.568139 0.498077 0.292790
16 55.000000 110.000000 110.000000 0.643860 0.460740 0.514030 0.330055
17 55.000000 110.000000 110.000000 0.079609 0.005204 0.987561 0.135492
18 55.000000 110.000000 110.000000 0.439841 0.503735 0.548157 0.502310
19 55.000000 110.000000 110.000000 0.404858 0.248919 0.070696 0.877001
20 55.000000 110.000000 110.000000 0.152247 0.315338 0.780843 0.517365




