ITEM: TIMESTEP
0
ITEM: NUMBER OF ATOMS
40
ITEM: BOX BOUNDS pp pp pp
-5.0000000000000000e+02 5.0000000000000000e+02
-5.0000000000000000e+02 5.0000000000000000e+02
-5.0000000000000000e+02 5.0000000000000000e+02
ITEM: ATOMS id type x y z c_q[1] c_q[2] c_q[3] c_q[4] 
1 1 -500 -500 -500 0.289921 0.106252 0.73038 0.609263 
2 1 -250 -500 -500 0.564109 0.520213 0.608717 0.20155 
3 1 0 -500 -500 0.561807 0.520822 0.026792 0.642183 
4 1 250 -500 -500 0.891385 0.213215 0.085569 0.390704 
5 1 -500 -250 -500 0.525541 0.46895 0.430306 0.564561 
6 1 -250 -250 -500 0.638624 0.648723 0.155924 0.383414 
7 1 0 -250 -500 0.084805 0.462596 0.462307 0.751722 
8 1 250 -250 -500 0.331089 0.72537 0.42077 0.432634 
9 1 -500 0 -500 0.455018 0.483702 0.550246 0.506182 
10 1 -250 0 -500 0.280492 0.52651 0.71812 0.35835 
11 1 0 0 -500 0.005394 0.52328 0.773448 0.357669 
12 1 250 0 -500 0.010212 0.46035 0.768086 0.444992 
13 1 -500 250 -500 0.452764 0.392367 0.134177 0.789335 
14 1 -250 250 -500 0.517896 0.643754 0.455425 0.331592 
15 1 0 250 -500 0.606124 0.109122 0.680743 0.396604 
16 1 250 250 -500 0.592222 0.300631 0.730484 0.159017 
17 1 -500 -500 -250 0.709263 0.070228 0.60518 0.354641 
18 1 -250 -500 -250 0.262945 0.846098 0.386493 0.256128 
19 1 0 -500 -250 0.480304 0.674318 0.055291 0.558163 
20 1 250 -500 -250 0.081208 0.37828 0.920893 0.047601 
21 1 -500 -250 -250 0.304423 0.781475 0.009105 0.544555 
22 1 -250 -250 -250 0.72913 0.626236 0.112559 0.252047 
23 1 0 -250 -250 0.526168 0.581593 0.44269 0.434653 
24 1 250 -250 -250 0.597299 0.577629 0.450236 0.326905 
25 1 -500 0 -250 0.232276 0.221698 0.09641 0.942127 
26 1 -250 0 -250 0.661366 0.669674 0.337296 0.019062 
27 1 0 0 -250 0.628882 0.696043 0.234095 0.255404 
28 1 250 0 -250 0.244368 0.020747 0.962122 0.11906 
29 1 -500 250 -250 0.613958 0.114161 0.291006 0.724802 
30 1 -250 250 -250 0.244244 0.476829 0.727595 0.428467 
31 1 0 250 -250 0.829263 0.424192 0.101615 0.349369 
32 1 250 250 -250 0.545452 0.498525 0.231605 0.632704 
33 1 -500 -500 0 0.35656 0.712085 0.425268 0.430054 
34 1 -250 -500 0 0.643368 0.226992 0.607408 0.406949 
35 1 0 -500 0 0.495149 0.257928 0.776716 0.291571 
36 1 250 -500 0 0.796907 0.254087 0.540988 0.087806 
37 1 -500 -250 0 0.64915 0.640257 0.399172 0.096629 
38 1 -250 -250 0 0.730414 0.300426 0.206946 0.57742 
39 1 0 -250 0 0.695908 0.469286 0.494498 0.225732 
40 1 250 -250 0 0.263526 0.283314 0.550542 0.739724 
ITEM: TIMESTEP
10000
ITEM: NUMBER OF ATOMS
40
ITEM: BOX BOUNDS pp pp pp
-5.0000000000000000e+02 5.0000000000000000e+02
-5.0000000000000000e+02 5.0000000000000000e+02
-5.0000000000000000e+02 5.0000000000000000e+02
ITEM: ATOMS id type x y z c_q[1] c_q[2] c_q[3] c_q[4] 
3 1 1.63962 -499.677 -499.001 0.498413 0.513664 0.0445188 0.696959 
5 1 -497.229 -244.632 -495.544 0.545889 0.482112 0.43814 0.526884 
8 1 254.504 -248.54 -493.362 0.350511 0.711368 0.411453 0.449226 
14 1 -245.714 255.036 -496.682 0.506627 0.674917 0.433959 0.315429 
15 1 -3.3627 253.353 -498.262 0.560888 0.147588 0.716361 0.387878 
16 1 252.071 255.525 -497.347 0.590515 0.246255 0.738867 0.211486 
13 1 498.096 245.722 -499.248 0.443446 0.382868 0.167881 0.792832 
19 1 1.73036 -493.172 -250.792 0.495398 0.673914 0.0888185 0.540863 
17 1 497.598 -494.499 -252.354 0.695578 0.0870405 0.640296 0.314032 
22 1 -249.354 -248.054 -244.079 0.703057 0.639548 0.118964 0.287293 
23 1 2.71823 -246.871 -254.553 0.500323 0.5945 0.442528 0.447679 
24 1 248.278 -257.479 -254.415 0.634648 0.572433 0.411098 0.317082 
21 1 498.239 -252.174 -245.337 0.369096 0.753539 -0.0208221 0.543612 
26 1 -246.329 0.605746 -246.827 0.640379 0.684878 0.347217 -0.0172546 
27 1 -4.25537 0.397985 -251.679 0.618829 0.668972 0.261803 0.317783 
28 1 250.012 0.918465 -254.522 0.211965 -0.0601972 0.969964 0.103041 
25 1 498.526 2.70791 -245.943 0.199452 0.217357 0.150854 0.943514 
29 1 -499.814 250.368 -250.143 0.592972 0.107832 0.304886 0.737429 
30 1 -249.727 251.354 -252.611 0.242665 0.481248 0.748509 0.386327 
31 1 -3.93935 258.105 -245.557 0.811169 0.45919 0.0671258 0.355871 
32 1 249.037 244.173 -245.325 0.532165 0.477027 0.274443 0.643371 
18 1 -249.517 499.821 -248.57 0.292479 0.863689 0.343856 0.224189 
20 1 251.201 497.893 -246.482 0.113178 0.398919 0.907454 0.0676917 
34 1 -251.969 -496.873 -1.49151 0.624928 0.226293 0.62387 0.411148 
39 1 -0.869197 -249.511 -2.46702 0.68003 0.501221 0.478534 0.239464 
40 1 252.987 -250.887 -1.57096 0.254453 0.332566 0.543886 0.727215 
35 1 1.59777 494.459 -1.95283 0.454777 0.229392 0.817376 0.269171 
33 1 -498.192 -496.99 4.35638 0.340118 0.713373 0.428314 0.438139 
38 1 -252.031 -256.139 -1.11046 0.718826 0.306558 0.138761 0.608322 
37 1 499.263 -252.361 1.14798 0.690498 0.61865 0.361075 0.100544 
36 1 246.767 498.917 3.72351 0.813178 0.250385 0.51894 0.0821572 
2 1 -252.095 -496.483 497.333 0.546122 0.543887 0.60242 0.207431 
4 1 252.701 -499.043 498.627 0.891756 0.222983 0.103803 0.379835 
6 1 -247.621 -249.621 496.684 0.60832 0.658067 0.191187 0.400427 
7 1 -4.54399 -247.059 498.791 0.0610798 0.515845 0.437259 0.734151 
9 1 -499.769 -0.0295967 499.504 0.410272 0.440505 0.599518 0.527457 
10 1 -247.471 -1.08916 498.371 0.2724 0.557854 0.714928 0.321675 
11 1 -3.76522 1.18758 495.776 -0.00262276 0.512732 0.787362 0.342287 
12 1 247.973 6.27311 496.444 0.0432686 0.440511 0.800033 0.405 
1 1 499.976 495.356 496.946 0.329343 0.100991 0.72887 0.591678 
ITEM: TIMESTEP
20000
ITEM: NUMBER OF ATOMS
40
ITEM: BOX BOUNDS pp pp pp
-5.0000000000000000e+02 5.0000000000000000e+02
-5.0000000000000000e+02 5.0000000000000000e+02
-5.0000000000000000e+02 5.0000000000000000e+02
ITEM: ATOMS id type x y z c_q[1] c_q[2] c_q[3] c_q[4] 
4 1 250.726 -495.422 -498.118 0.87262 0.270222 0.126511 0.386665 
5 1 -498.295 -244.008 -493.654 0.558806 0.451569 0.409601 0.562182 
8 1 267.114 -248.446 -491.86 0.299126 0.688477 0.465622 0.468743 
9 1 498.465 -0.383696 -497.529 0.369602 0.480275 0.609523 0.511088 
14 1 -244.624 256.617 -489.815 0.527686 0.617398 0.470886 0.344433 
13 1 495.76 247.703 -494.691 0.420871 0.393113 0.183217 0.796719 
19 1 1.40207 -493.118 -254.721 0.463838 0.668795 0.10257 0.57188 
20 1 258.076 -499.15 -248.829 0.139571 0.400872 0.898588 0.111183 
17 1 498.655 -495.712 -250.404 0.708031 0.076812 0.636382 0.296328 
22 1 -252.994 -252.359 -240.128 0.708898 0.652113 0.127147 0.23674 
23 1 -0.515377 -244.44 -252.277 0.469114 0.60401 0.450542 0.460561 
24 1 248.966 -255.289 -250.181 0.621709 0.563571 0.436456 0.324612 
21 1 496.972 -251.337 -239.503 0.352878 0.76306 -0.0425515 0.53982 
28 1 249.14 -3.82396 -258.419 0.222852 -0.0691799 0.963766 0.129255 
26 1 -249.339 5.2938 -247.178 0.640052 0.679096 0.358072 0.0307688 
27 1 -3.65516 4.56348 -254.042 0.593789 0.690448 0.274885 0.308438 
25 1 499.136 5.2077 -243.533 0.178103 0.223674 0.169154 0.943205 
30 1 -252.057 250.888 -254.018 0.212751 0.5007 0.773648 0.324816 
31 1 -3.44953 263.713 -247.753 0.816704 0.469604 0.0773067 0.326329 
32 1 248.734 239.371 -247.73 0.553156 0.430046 0.276685 0.657666 
29 1 499.385 248.256 -250.823 0.568201 0.0859905 0.32382 0.751594 
18 1 -247.778 498.333 -251.091 0.244797 0.866538 0.375746 0.219093 
34 1 -257.545 -492.728 -6.64151 0.646352 0.231808 0.578217 0.440635 
38 1 -255.746 -258.081 -4.66608 0.741557 0.261197 0.192733 0.587131 
39 1 -1.37254 -254.345 -1.3359 0.71598 0.494564 0.441144 0.219479 
40 1 253.583 -253.135 -0.0611616 0.302999 0.356033 0.514577 0.718778 
35 1 0.865553 497.021 -5.85515 0.446465 0.184798 0.826725 0.288175 
33 1 -495.85 -495.705 2.26912 0.343366 0.710616 0.444858 0.423351 
37 1 496.899 -246.718 -0.168583 0.681149 0.619883 0.381799 0.0775315 
36 1 241.472 499.69 0.387793 0.825756 0.203402 0.521072 0.0723853 
1 1 -499.722 -499.319 499.108 0.359208 0.075459 0.710388 0.60052 
2 1 -255.855 -496.287 493.89 0.556046 0.509351 0.628224 0.191597 
6 1 -247.718 -251.135 492.329 0.592776 0.680304 0.181199 0.391114 
7 1 1.98031 -244.308 497.49 -0.0154805 0.481223 0.485781 0.729522 
10 1 -253.301 -1.15602 496.767 0.268135 0.610211 0.695071 0.269484 
11 1 -1.0477 3.51279 492.221 0.0581137 0.47174 0.792507 0.382122 
12 1 246.203 8.31868 491.703 0.0712956 0.427793 0.780344 0.450525 
15 1 -5.85863 251.466 494.851 0.563894 0.0987692 0.702018 0.423602 
16 1 253.068 253.443 494.916 0.623891 0.226612 0.726555 0.177556 
3 1 4.65145 498.939 498.432 0.510271 0.534663 0.04692 0.671981 
ITEM: TIMESTEP
30000
ITEM: NUMBER OF ATOMS
40
ITEM: BOX BOUNDS pp pp pp
-5.0000000000000000e+02 5.0000000000000000e+02
-5.0000000000000000e+02 5.0000000000000000e+02
-5.0000000000000000e+02 5.0000000000000000e+02
ITEM: ATOMS id type x y z c_q[1] c_q[2] c_q[3] c_q[4] 
4 1 248.308 -494.72 -497.253 0.891225 0.281176 0.101447 0.341124 
7 1 6.80401 -245.681 -495.271 0.0087358 0.480161 0.493828 0.724916 
8 1 268.547 -244.946 -487.184 0.325753 0.664058 0.471884 0.47983 
5 1 499.283 -242.2 -489.937 0.507833 0.48557 0.443248 0.556649 
9 1 -499.664 -5.36176 -495.48 0.333364 0.440194 0.657468 0.512673 
14 1 -243.054 259.951 -490.183 0.541315 0.631279 0.44374 0.334006 
13 1 496.236 251.307 -492.878 0.433519 0.366837 0.166777 0.806026 
19 1 0.914148 -493.189 -261.52 0.510124 0.626423 0.0728588 0.584858 
17 1 497.509 -497.856 -251.72 0.721238 0.078287 0.633563 0.268858 
22 1 -250.145 -252.818 -234.04 0.719037 0.634737 0.155556 0.236424 
23 1 -0.90059 -245.57 -254.269 0.464653 0.615254 0.438974 0.461369 
24 1 253.443 -256.894 -250.218 0.599653 0.577912 0.456154 0.313621 
21 1 493.27 -247.842 -242.501 0.366475 0.746202 -0.0185669 0.555459 
28 1 244.82 -5.029 -256.227 0.23791 -0.0640974 0.965627 0.0827919 
26 1 -246.667 2.29641 -243.114 0.639575 0.66716 0.38173 0.0110949 
27 1 -4.51994 7.86137 -253.314 0.612699 0.669546 0.308056 0.285323 
25 1 497.459 8.53845 -244.903 0.169945 0.281229 0.193457 0.924447 
29 1 -498.595 244.82 -253.74 0.558827 0.0922226 0.388409 0.726874 
30 1 -253.074 251.659 -258.115 0.211979 0.463725 0.797363 0.322858 
31 1 0.343194 267.475 -244.917 0.844294 0.468477 -0.00282198 0.26017 
32 1 247.615 234.815 -250.772 0.517329 0.454114 0.2573 0.678194 
18 1 -253.382 496.838 -246.051 0.238083 0.844648 0.430117 0.211861 
20 1 257.02 498.703 -248.598 0.166257 0.394155 0.897867 0.104093 
34 1 -257.501 -493.697 -7.19925 0.630381 0.240955 0.593973 0.4379 
38 1 -247.99 -250.802 -5.5337 0.755795 0.264662 0.226921 0.554288 
39 1 -6.77693 -250.79 -1.3696 0.686913 0.516594 0.432751 0.272043 
40 1 248.961 -259.636 -0.748455 0.303156 0.375469 0.503441 0.716705 
35 1 -0.0384857 497.755 -4.99279 0.47917 0.183647 0.813741 0.272939 
33 1 -498.317 -492.223 2.03 0.354446 0.68924 0.492679 0.395707 
37 1 497.825 -246.845 3.24799 0.662974 0.616785 0.414144 0.0923348 
36 1 243.259 497.693 1.10414 0.820758 0.234926 0.512486 0.092326 
1 1 -496.036 -496.215 499.365 0.375334 0.0676032 0.712923 0.588469 
2 1 -250.219 -494.799 493.912 0.53243 0.523927 0.632496 0.204862 
6 1 -244.285 -249.525 495.802 0.627264 0.660268 0.190977 0.366216 
10 1 -255.818 3.44485 495.584 0.272378 0.570488 0.730536 0.258207 
11 1 -0.0100227 4.72353 490.811 0.0022342 0.44095 0.79014 0.425719 
12 1 242.87 9.13812 494.552 0.0219969 0.417454 0.772576 0.477885 
15 1 -5.52973 256.796 499.626 0.578174 0.129745 0.705698 0.388421 
16 1 252.739 252.388 495.826 0.644159 0.195741 0.725975 0.140372 
3 1 1.3425 497.373 499.095 0.48884 0.531865 0.024795 0.691043 
ITEM: TIMESTEP
40000
ITEM: NUMBER OF ATOMS
40
ITEM: BOX BOUNDS pp pp pp
-5.0000000000000000e+02 5.0000000000000000e+02
-5.0000000000000000e+02 5.0000000000000000e+02
-5.0000000000000000e+02 5.0000000000000000e+02
ITEM: ATOMS id type x y z c_q[1] c_q[2] c_q[3] c_q[4] 
4 1 248.402 -490.704 -495.527 0.88468 0.290256 0.114689 0.346323 
5 1 499.012 -235.833 -489.497 0.505346 0.467347 0.436122 0.579663 
7 1 5.41956 -245.901 -485.341 0.0119179 0.454838 0.530146 0.71549 
8 1 272.87 -243.232 -483.834 0.300686 0.683325 0.506961 0.430866 
9 1 -498.602 -4.33748 499.625 0.323942 0.422306 0.622619 0.573641 
14 1 -241.075 261.656 -495.552 0.56895 0.647847 0.412694 0.293724 
13 1 497.883 255.915 -496.346 0.386908 0.389639 0.149128 0.822341 
17 1 -498.468 -498.398 -255.037 0.706083 0.0358995 0.647866 0.283598 
19 1 1.17823 -496.881 -259.523 0.522275 0.626165 0.0457737 0.577106 
22 1 -249.721 -253.407 -232.251 0.739897 0.613175 0.199895 0.191337 
23 1 0.0717171 -244.556 -256.471 0.455112 0.593904 0.432597 0.503002 
24 1 250.504 -251.599 -249.773 0.572354 0.588825 0.482515 0.304754 
21 1 494.572 -253.352 -240.237 0.426585 0.739861 0.0145661 0.520018 
26 1 -246.896 -0.61784 -239.611 0.644092 0.636859 0.419453 0.0601348 
28 1 243.841 -5.6012 -251.765 0.253194 -0.0776337 0.959863 0.0923548 
27 1 -5.47947 10.6468 -255.08 0.611794 0.637726 0.344982 0.316229 
25 1 496.776 7.91103 -233.236 0.183901 0.27519 0.191894 0.92392 
30 1 -250.225 253.219 -261.051 0.21964 0.42751 0.799841 0.359511 
31 1 -0.142747 264.097 -245.506 0.842309 0.463935 0.0177115 0.2738 
32 1 248.005 232.897 -251.327 0.506762 0.445322 0.25623 0.692262 
29 1 496.471 250.671 -252.793 0.59753 0.0984963 0.414452 0.679328 
18 1 -254.116 493.033 -245.506 0.245215 0.851182 0.427287 0.181065 
20 1 254.266 497.446 -242.848 0.207218 0.389837 0.889549 0.117436 
34 1 -260.656 -490.975 -6.05412 0.651979 0.260923 0.559129 0.440701 
38 1 -242.051 -253.287 -0.982242 0.75349 0.283072 0.220227 0.551021 
39 1 -10.1055 -247.65 -2.87037 0.660465 0.538204 0.461582 0.247111 
40 1 249.311 -262.596 -4.18026 0.331818 0.366782 0.509999 0.703753 
35 1 0.963608 497.937 -2.90365 0.44374 0.202857 0.843992 0.222758 
33 1 -498.815 -493.271 1.14773 0.338497 0.65103 0.517721 0.439937 
37 1 498.146 -247.673 1.25878 0.658929 0.603358 0.424118 0.147972 
36 1 247.25 498.236 5.8741 0.8147 0.215169 0.526047 0.11507 
1 1 -494.483 -492.996 499.65 0.326775 0.0648925 0.696799 0.635199 
2 1 -247.375 -494.609 495.21 0.523007 0.540011 0.617164 0.232294 
6 1 -242.674 -250.348 497.174 0.602127 0.664764 0.209512 0.389406 
11 1 -3.07174 -1.70045 483.587 0.032884 0.421682 0.791099 0.441889 
10 1 -251.346 2.78824 495.72 0.313179 0.503772 0.753576 0.283295 
12 1 239.491 7.69622 496.691 0.00645413 0.47398 0.769677 0.427666 
15 1 -9.31231 260.118 497.984 0.589356 0.113489 0.703308 0.380969 
16 1 248.431 251.664 492.933 0.682575 0.173319 0.703994 0.0918937 
3 1 1.54078 494.789 495.344 0.49228 0.569758 0.0267511 0.657511 
ITEM: TIMESTEP
50000
ITEM: NUMBER OF ATOMS
40
ITEM: BOX BOUNDS pp pp pp
-5.0000000000000000e+02 5.0000000000000000e+02
-5.0000000000000000e+02 5.0000000000000000e+02
-5.0000000000000000e+02 5.0000000000000000e+02
ITEM: ATOMS id type x y z c_q[1] c_q[2] c_q[3] c_q[4] 
4 1 245.19 -492.204 -490.609 0.886807 0.301836 0.133031 0.323682 
7 1 3.91187 -247.076 -485.971 0.0365881 0.430841 0.531082 0.72869 
8 1 269.296 -237.185 -486.673 0.306336 0.652486 0.542236 0.431742 
5 1 495.163 -241.311 -491.793 0.506366 0.409628 0.442223 0.616634 
9 1 498.628 -4.34867 -499.822 0.329931 0.421159 0.605646 0.589036 
13 1 -495.136 254.892 -498.072 0.341474 0.346909 0.172665 0.856292 
14 1 -240.804 262.851 -494.359 0.568767 0.672318 0.38518 0.275915 
1 1 -490.902 -499.142 -499.372 0.296327 0.00320932 0.707865 0.641176 
19 1 4.30798 -497.696 -256.733 0.508249 0.617162 0.0492656 0.598637 
20 1 254.09 -499.428 -243.461 0.190305 0.349742 0.902506 0.164158 
22 1 -252.353 -253.369 -223.693 0.739688 0.611708 0.195391 0.20124 
23 1 1.67182 -239.542 -259.862 0.455735 0.601717 0.406575 0.514722 
24 1 248.784 -253.513 -246.677 0.569123 0.541458 0.487959 0.38055 
21 1 497.229 -248.868 -243.657 0.446133 0.738139 -0.0189295 0.505725 
26 1 -242.274 1.05749 -240.664 0.62676 0.664656 0.404175 0.0452288 
27 1 -7.99665 17.0288 -255.876 0.619037 0.626744 0.347539 0.32125 
28 1 245.786 0.684876 -252.356 0.250889 -0.0990537 0.955738 0.117508 
25 1 496.218 10.6291 -235.017 0.209116 0.267023 0.222124 0.914128 
30 1 -250.985 254.478 -259.668 0.219698 0.373714 0.825259 0.361965 
31 1 -3.64151 266.391 -249.633 0.83351 0.46309 0.00935434 0.301199 
32 1 243.122 236.071 -254.76 0.485388 0.455861 0.297954 0.683969 
29 1 495.355 255.632 -255.696 0.598603 0.0734292 0.414304 0.681641 
18 1 -252.919 490.862 -250.594 0.283149 0.834034 0.416736 0.224822 
17 1 498.888 499.762 -253.385 0.705807 0.0407963 0.62078 0.338829 
34 1 -256.081 -489.842 -5.86016 0.607035 0.243613 0.574139 0.492468 
33 1 498.112 -495.668 -2.75892 0.354826 0.630428 0.534121 0.437463 
38 1 -240.741 -252.103 -4.96304 0.752043 0.270024 0.248566 0.547479 
39 1 -9.98545 -247.217 -3.54544 0.643465 0.532938 0.458838 0.30232 
37 1 498.519 -251.04 -2.78395 0.660325 0.611144 0.420307 0.117539 
40 1 250.07 -264.537 0.699167 0.334888 0.400803 0.484415 0.701818 
35 1 -1.96796 496.826 2.39965 0.420396 0.246502 0.824303 0.288148 
36 1 247.72 497.856 7.33207 0.846019 0.222426 0.473811 0.101397 
2 1 -247.928 -495.429 496.902 0.504203 0.561715 0.622037 0.208145 
6 1 -247.981 -252.47 495.216 0.627568 0.625075 0.204359 0.416745 
10 1 -252.414 -1.31302 495.637 0.331737 0.511731 0.744301 0.272209 
11 1 -0.888669 -0.956809 474.202 0.0202128 0.42947 0.782626 0.450159 
12 1 240.704 8.19633 496.549 -0.0171449 0.405424 0.783416 0.470741 
15 1 -6.90041 259.825 499.729 0.654549 0.125691 0.654569 0.356802 
16 1 249.296 245.676 488.738 0.69865 0.163734 0.68908 0.101234 
3 1 1.82132 496.616 495.157 0.515789 0.638974 0.0329077 0.569729 
ITEM: TIMESTEP
60000
ITEM: NUMBER OF ATOMS
40
ITEM: BOX BOUNDS pp pp pp
-5.0000000000000000e+02 5.0000000000000000e+02
-5.0000000000000000e+02 5.0000000000000000e+02
-5.0000000000000000e+02 5.0000000000000000e+02
ITEM: ATOMS id type x y z c_q[1] c_q[2] c_q[3] c_q[4] 
4 1 242.849 -492.851 -492.167 0.895033 0.326757 0.119796 0.278916 
6 1 -247.109 -249.974 499.965 0.631066 0.658 0.229731 0.34061 
7 1 3.84188 -246.786 -484.616 -0.0168568 0.418211 0.536638 0.73269 
8 1 274.613 -237.754 -487.765 0.331881 0.618202 0.534234 0.471461 
5 1 492.969 -244.255 -490.258 0.483278 0.431995 0.391055 0.653375 
9 1 -498.745 0.539971 -498.021 0.33264 0.457601 0.601517 0.56403 
13 1 -496.385 256.348 -493.337 0.282155 0.317644 0.214013 0.879596 
14 1 -239.128 267.138 -490.759 0.565127 0.695364 0.336758 0.289297 
15 1 -9.5551 266.833 499.952 0.680045 0.126204 0.628038 0.356623 
22 1 -251.997 -260.161 -223.196 0.7296 0.598085 0.2265 0.24223 
23 1 0.551328 -236.095 -257.393 0.4867 0.598569 0.367495 0.519409 
24 1 243.602 -252.914 -242.594 0.591024 0.550511 0.48297 0.338183 
21 1 -499.771 -246.017 -245.092 0.423443 0.753399 -0.0163766 0.50281 
26 1 -243.942 -2.15848 -240.271 0.657134 0.671181 0.340827 0.0390981 
27 1 -7.26087 16.6538 -256.542 0.628386 0.656495 0.280749 0.308747 
28 1 246.9 9.30261 -249.253 0.244281 -0.0822771 0.960989 0.100288 
25 1 492.642 6.11794 -231.216 0.237288 0.300949 0.248484 0.889595 
30 1 -253.551 250.903 -259.947 0.212588 0.372985 0.829852 0.356419 
31 1 -2.36849 270.182 -250.083 0.842059 0.436209 0.0405019 0.31467 
32 1 248.717 235.77 -256.391 0.50545 0.47416 0.302874 0.654186 
29 1 497.052 252.49 -255.263 0.600892 0.0124991 0.406548 0.688107 
17 1 -496.672 499.288 -252.144 0.689492 0.0534824 0.652379 0.310068 
18 1 -251.802 490.086 -256.174 0.272687 0.829833 0.436372 0.215867 
19 1 10.7255 498.314 -256.883 0.50091 0.63368 0.0844454 0.583445 
20 1 251.445 497.888 -244.949 0.212058 0.362853 0.898457 0.127058 
34 1 -257.431 -491.127 -11.9092 0.625333 0.260826 0.589354 0.43999 
33 1 489.56 -493.772 0.583328 0.340536 0.628047 0.545898 0.437707 
37 1 -499.201 -248.525 -7.30819 0.629314 0.629585 0.45088 0.0655239 
39 1 -5.57775 -251.097 -3.08194 0.6277 0.503502 0.49686 0.324975 
40 1 250.18 -256.774 -0.49709 0.360624 0.432879 0.45986 0.686364 
38 1 -244.794 -247.628 2.94158 0.767375 0.287784 0.270939 0.504884 
35 1 -2.31004 493.439 5.29415 0.467007 0.278886 0.77806 0.314245 
36 1 246.646 492.325 5.79729 0.813508 0.23368 0.518248 0.122546 
2 1 -246.082 -491.737 498.443 0.564165 0.554066 0.589069 0.166516 
10 1 -253.713 -0.211296 499.688 0.337366 0.519317 0.737563 0.269249 
11 1 -2.71099 -0.520023 472.022 0.0251936 0.394637 0.79834 0.454181 
12 1 240.449 7.94102 495.486 -0.0347077 0.426573 0.785625 0.446793 
16 1 252.266 247.605 486.628 0.71286 0.173337 0.673478 0.0906237 
1 1 -495.12 499.01 497.71 0.311175 0.017341 0.704742 0.637344 
3 1 -0.44666 498.096 492.655 0.565522 0.630596 -0.00013658 0.531539 
ITEM: TIMESTEP
70000
ITEM: NUMBER OF ATOMS
40
ITEM: BOX BOUNDS pp pp pp
-5.0000000000000000e+02 5.0000000000000000e+02
-5.0000000000000000e+02 5.0000000000000000e+02
-5.0000000000000000e+02 5.0000000000000000e+02
ITEM: ATOMS id type x y z c_q[1] c_q[2] c_q[3] c_q[4] 
4 1 242.644 -498.186 -490.863 0.881333 0.335797 0.1335 0.304419 
7 1 5.0414 -239.39 -486.688 -0.0129043 0.444321 0.492112 0.748491 
8 1 283.396 -229.352 -487.034 0.351166 0.614072 0.550611 0.443199 
5 1 493.616 -242.731 -491.464 0.518754 0.434126 0.376965 0.632714 
9 1 497.492 -4.20905 -491.244 0.302118 0.473884 0.587094 0.582649 
10 1 -252.345 1.3162 -497.798 0.319545 0.514838 0.744459 0.280379 
14 1 -240.107 269.871 -496.319 0.599524 0.664427 0.353238 0.272637 
13 1 498.804 259.803 -496.194 0.30448 0.307451 0.173644 0.884654 
21 1 -499.043 -247.774 -247.138 0.460848 0.741245 -0.0358515 0.486714 
22 1 -253.215 -258.812 -219.821 0.718545 0.585048 0.282919 0.247728 
23 1 -0.21573 -238.615 -265.359 0.46485 0.607245 0.371173 0.526686 
24 1 238.549 -247.081 -242.275 0.575793 0.59174 0.457838 0.329683 
26 1 -240.813 -0.695334 -245.016 0.651865 0.666485 0.355675 0.0660621 
27 1 -6.13464 16.8833 -259.301 0.605676 0.671428 0.285765 0.317299 
28 1 242.357 7.11009 -247.903 0.264801 -0.0821487 0.958396 0.0678948 
25 1 492.656 5.24813 -231.333 0.210605 0.325029 0.264461 0.883211 
30 1 -252.622 251.425 -259.927 0.198319 0.366057 0.831761 0.367213 
31 1 2.73782 267.503 -245.192 0.845394 0.454012 0.0862145 0.267862 
32 1 255.163 237.033 -259.712 0.484803 0.505629 0.307114 0.644194 
29 1 497.961 255.022 -254.693 0.563683 0.0240729 0.436986 0.700518 
17 1 -495.201 496.34 -248.608 0.702502 0.0634673 0.641164 0.302277 
18 1 -248.164 489.287 -250.376 0.281435 0.828962 0.424581 0.23097 
19 1 11.1112 498.83 -260.487 0.533398 0.621649 0.136603 0.557117 
20 1 251.038 498.984 -241.97 0.231469 0.387105 0.884841 0.116744 
34 1 -258.33 -480.448 -7.33057 0.609449 0.25038 0.615441 0.432567 
39 1 -6.86551 -247.78 -6.74993 0.628471 0.539626 0.514767 0.221004 
40 1 246.905 -259.58 -3.65131 0.370817 0.455455 0.479815 0.651791 
37 1 497.286 -249.094 -4.20942 0.650704 0.625626 0.427919 0.0454117 
35 1 1.64804 494.951 -1.75013 0.485837 0.347466 0.732231 0.327213 
33 1 486.058 -492.452 0.951772 0.317691 0.624042 0.564973 0.436405 
38 1 -243.902 -251.068 7.11327 0.764618 0.279536 0.258151 0.52017 
36 1 243.752 488.64 8.14676 0.842159 0.238662 0.466772 0.126222 
1 1 -496.388 -496.509 499.077 0.273812 0.0877235 0.725696 0.625058 
2 1 -247.141 -487.259 496.028 0.58734 0.507566 0.605671 0.174846 
6 1 -252.181 -255.552 497.14 0.612728 0.679442 0.212965 0.342882 
11 1 -6.23322 -0.88096 472.38 -0.00455553 0.358425 0.816056 0.453391 
12 1 240.226 7.41769 496.426 0.00130455 0.433535 0.781356 0.448919 
15 1 -8.50227 270.219 498.533 0.693017 0.119126 0.60635 0.371316 
16 1 248.894 248.879 488.222 0.709204 0.177761 0.673653 0.107805 
3 1 -1.44353 498.81 490.478 0.593621 0.640012 0.00284291 0.487843 
ITEM: TIMESTEP
80000
ITEM: NUMBER OF ATOMS
40
ITEM: BOX BOUNDS pp pp pp
-5.0000000000000000e+02 5.0000000000000000e+02
-5.0000000000000000e+02 5.0000000000000000e+02
-5.0000000000000000e+02 5.0000000000000000e+02
ITEM: ATOMS id type x y z c_q[1] c_q[2] c_q[3] c_q[4] 
1 1 -495.822 -497.595 499.289 0.209665 0.0485523 0.765235 0.606711 
4 1 240.902 -498.926 -491.201 0.86185 0.348806 0.158468 0.332321 
7 1 9.44142 -241.048 -487.024 -0.0407104 0.452572 0.47751 0.752001 
8 1 284.719 -229.394 -487.483 0.386735 0.619324 0.550608 0.404605 
5 1 493.684 -240.593 -497.845 0.521277 0.438401 0.346572 0.644952 
9 1 499.211 -6.69295 -490.641 0.288521 0.509286 0.555639 0.590465 
10 1 -257.935 4.36638 -499.244 0.291301 0.519218 0.752886 0.280571 
12 1 240.228 8.63146 -498.748 0.0739336 0.437294 0.806471 0.391041 
13 1 499.032 255.525 -496.369 0.275371 0.288873 0.251139 0.881846 
22 1 -251.424 -253.688 -215.422 0.667377 0.614543 0.318871 0.274346 
23 1 2.33598 -236.9 -266.875 0.453782 0.599599 0.402683 0.521928 
24 1 236.657 -249.262 -244.475 0.54325 0.602754 0.466286 0.352342 
21 1 497.725 -249.551 -247.297 0.479786 0.717928 -0.0575509 0.501072 
26 1 -237.929 -1.38257 -248.028 0.672728 0.644645 0.350935 0.0933568 
27 1 -8.23304 20.5633 -257.171 0.591531 0.67022 0.319819 0.314025 
28 1 237.21 7.83205 -250.778 0.239653 -0.0435276 0.968291 0.0555342 
25 1 494.72 1.1584 -229.69 0.270675 0.320671 0.246793 0.873498 
29 1 -499.934 260.369 -257.363 0.576926 -0.00305376 0.434352 0.691726 
30 1 -255.86 254.478 -261.099 0.144347 0.399994 0.841198 0.333997 
31 1 8.0645 275.404 -248.342 0.873087 0.399515 0.0588535 0.273209 
32 1 255.344 231.367 -258.352 0.485712 0.438552 0.319368 0.68539 
17 1 -496.354 496.529 -250.468 0.680137 0.0784391 0.646984 0.335667 
18 1 -251.705 489.373 -244.64 0.269284 0.814218 0.448281 0.25215 
19 1 11.9085 -499.865 -258.891 0.516517 0.591525 0.141161 0.602812 
20 1 250.404 494.969 -241.934 0.230395 0.354689 0.88395 0.199366 
34 1 -257.132 -478.193 -7.17979 0.60432 0.257821 0.642486 0.394382 
39 1 -3.24487 -247.325 -5.39651 0.610913 0.538372 0.509335 0.278423 
40 1 250.343 -262.242 -2.88232 0.364432 0.439858 0.455945 0.682516 
37 1 497.122 -247.866 -7.73035 0.648135 0.604626 0.461526 0.0366369 
33 1 486.005 -496.403 0.820151 0.319425 0.660717 0.516863 0.440764 
38 1 -244.01 -253.192 8.68725 0.743334 0.286706 0.201222 0.569881 
35 1 -7.1139 497.825 3.13778 0.491308 0.321476 0.737266 0.334228 
36 1 248.008 486.424 14.4675 0.824354 0.193121 0.510279 0.150869 
2 1 -245.656 -487.457 497.377 0.583869 0.51809 0.596377 0.187122 
6 1 -248.799 -257.7 494.365 0.621012 0.66494 0.211826 0.356831 
11 1 -6.39524 0.344644 474.687 0.0103374 0.33716 0.826979 0.449802 
14 1 -239.78 267.095 499.39 0.575457 0.687111 0.379446 0.229668 
15 1 -14.8637 265.373 494.614 0.694642 0.137498 0.629794 0.31926 
16 1 251.262 251.557 492.118 0.703256 0.214856 0.67287 0.0807082 
3 1 -1.94096 499.261 489.004 0.583412 0.614951 0.0427952 0.528804 
ITEM: TIMESTEP
90000
ITEM: NUMBER OF ATOMS
40
ITEM: BOX BOUNDS pp pp pp
-5.0000000000000000e+02 5.0000000000000000e+02
-5.0000000000000000e+02 5.0000000000000000e+02
-5.0000000000000000e+02 5.0000000000000000e+02
ITEM: ATOMS id type x y z c_q[1] c_q[2] c_q[3] c_q[4] 
4 1 238.919 -497.491 -493.818 0.850473 0.36659 0.160392 0.341442 
7 1 10.7061 -242.262 -485.061 -0.0330982 0.386559 0.494469 0.777802 
8 1 283.636 -223.047 -483.375 0.372353 0.620927 0.551187 0.414723 
9 1 -498.085 -13.1455 -494.137 0.320472 0.487259 0.529928 0.615672 
10 1 -255.449 5.0903 -498.943 0.297831 0.434187 0.803163 0.278759 
22 1 -261.493 -261.057 -214.039 0.660064 0.632945 0.310365 0.259556 
23 1 -1.69147 -234.851 -262.358 0.39823 0.587207 0.453215 0.539627 
24 1 235.298 -254.589 -243.913 0.55884 0.561974 0.482013 0.37356 
21 1 499.738 -254.497 -251.09 0.495626 0.705758 -0.056198 0.503093 
26 1 -240.836 0.255883 -252.11 0.659684 0.661655 0.33587 0.119253 
25 1 495.079 -0.657946 -230.117 0.253143 0.262329 0.216717 0.905614 
27 1 -5.83775 18.5031 -256.13 0.565749 0.693081 0.309912 0.321747 
28 1 236.699 12.0823 -253.258 0.219334 -0.0419646 0.971261 0.0823571 
29 1 -499.056 255.25 -260.939 0.626833 -0.00586002 0.450704 0.635541 
30 1 -256.736 257.867 -263.236 0.187653 0.411485 0.828089 0.331263 
31 1 4.94589 280.841 -251.495 0.837758 0.408347 0.0650769 0.356623 
32 1 255.245 236.481 -256.869 0.495996 0.446544 0.333687 0.665763 
17 1 -496.087 500.104 -245.829 0.668742 0.114708 0.673508 0.29328 
18 1 -246.001 491.857 -245.988 0.251975 0.813273 0.454845 0.261174 
19 1 13.5358 497.485 -254.456 0.512075 0.551639 0.17459 0.634816 
20 1 250.733 496.92 -241.67 0.245675 0.360137 0.879962 0.188713 
34 1 -253.543 -476.319 -7.30785 0.575258 0.235624 0.682399 0.384565 
39 1 -7.39494 -245.936 -8.2794 0.542842 0.586026 0.557613 0.225751 
40 1 250.857 -261.136 -9.24222 0.377882 0.423811 0.43945 0.696041 
37 1 493.483 -247.495 -9.0141 0.63614 0.610556 0.469619 0.0447741 
33 1 491.153 -497.668 3.3522 0.298066 0.677867 0.493826 0.455838 
38 1 -244.793 -253.787 9.74674 0.756794 0.283695 0.211149 0.549724 
35 1 -5.4601 497.013 6.4034 0.473632 0.322572 0.75599 0.316384 
36 1 252.371 480.02 15.8941 0.813457 0.152654 0.504678 0.245529 
2 1 -247.719 -486.659 495.186 0.647794 0.512197 0.518452 0.221865 
6 1 -255.319 -258.535 492.109 0.626232 0.643728 0.233257 0.372878 
5 1 492.259 -240.703 496.545 0.541633 0.461465 0.308814 0.631124 
11 1 -5.89566 2.79001 478.89 0.0249218 0.403364 0.811168 0.422708 
12 1 241.461 7.96607 498.177 0.107912 0.41359 0.807313 0.40687 
14 1 -239.775 263.913 496.786 0.574632 0.706095 0.345944 0.227049 
15 1 -8.53903 265.419 499.112 0.685558 0.149751 0.62265 0.346256 
16 1 250.608 251.891 488.231 0.68075 0.244296 0.688672 0.0512844 
13 1 -499.154 253.257 -499.625 0.32586 0.317333 0.210869 0.865245 
3 1 -2.91885 499.573 489.617 0.60005 0.600862 0.0817949 0.521742 
1 1 496.635 496.994 498.388 0.185959 0.0476102 0.772186 0.605708 
ITEM: TIMESTEP
100000
ITEM: NUMBER OF ATOMS
40
ITEM: BOX BOUNDS pp pp pp
-5.0000000000000000e+02 5.0000000000000000e+02
-5.0000000000000000e+02 5.0000000000000000e+02
-5.0000000000000000e+02 5.0000000000000000e+02
ITEM: ATOMS id type x y z c_q[1] c_q[2] c_q[3] c_q[4] 
4 1 238.96 -496.173 -489.264 0.869732 0.289898 0.162917 0.364668 
7 1 7.1991 -242.028 -486.007 -0.0485181 0.334394 0.528883 0.77853 
8 1 280.402 -225.981 -480.388 0.320988 0.614495 0.61129 0.381691 
9 1 -497.026 -16.7898 -489.094 0.335304 0.493795 0.549489 0.584637 
10 1 -254.856 4.93812 -495.246 0.307167 0.401877 0.821473 0.263297 
12 1 243.296 9.93842 -498.944 0.0880097 0.413132 0.825449 0.374445 
14 1 -243.465 264.886 -499.343 0.624845 0.706666 0.274931 0.186022 
1 1 499.369 492.811 -497.656 0.153416 0.0704374 0.75538 0.633169 
17 1 -493.028 -495.937 -243.174 0.691427 0.14107 0.655879 0.268048 
20 1 248.606 -498.918 -238.07 0.255631 0.408539 0.858956 0.173043 