ITEM: TIMESTEP
0
ITEM: NUMBER OF ATOMS
15
ITEM: BOX BOUNDS pp pp pp
-5.0000000000000000e+02 5.0000000000000000e+02
-5.0000000000000000e+02 5.0000000000000000e+02
-5.0000000000000000e+02 5.0000000000000000e+02
ITEM: ATOMS id type x y z c_q[1] c_q[2] c_q[3] c_q[4] 
1 1 -500 -500 -500 0.599935 0.080615 0.616066 0.504026 
2 1 -166.667 -500 -500 0.179416 0.658201 0.548219 0.483774 
3 1 166.667 -500 -500 0.354945 0.50456 0.754359 0.224444 
4 1 -500 -166.667 -500 0.270401 0.785281 0.554508 0.052335 
5 1 -166.667 -166.667 -500 0.719787 0.625587 0.291962 0.072846 
6 1 166.667 -166.667 -500 0.684531 0.345734 0.607463 0.207062 
7 1 -500 166.667 -500 0.42276 0.601645 0.407299 0.541668 
8 1 -166.667 166.667 -500 0.665341 0.480105 0.525136 0.22595 
9 1 166.667 166.667 -500 0.791959 0.56003 0.223374 0.09629 
10 1 -500 -500 -166.667 0.814518 0.493065 0.301314 0.051544 
11 1 -166.667 -500 -166.667 0.668704 0.665062 0.1879 0.274264 
12 1 166.667 -500 -166.667 0.086506 0.142956 0.233637 0.957859 
13 1 -500 -166.667 -166.667 0.454069 0.780879 0.384405 0.19048 
14 1 -166.667 -166.667 -166.667 0.148237 0.953868 0.193872 0.174858 
15 1 166.667 -166.667 -166.667 0.034312 0.549799 0.271537 0.789184 
ITEM: TIMESTEP
10000
ITEM: NUMBER OF ATOMS
15
ITEM: BOX BOUNDS pp pp pp
-5.0000000000000000e+02 5.0000000000000000e+02
-5.0000000000000000e+02 5.0000000000000000e+02
-5.0000000000000000e+02 5.0000000000000000e+02
ITEM: ATOMS id type x y z c_q[1] c_q[2] c_q[3] c_q[4] 
2 1 -164.55 -495.044 -495.712 0.19236 0.656262 0.560852 0.46665 
6 1 166.538 -173.123 -493.582 0.7294 0.355415 0.553207 0.188728 
9 1 167.216 165.413 -498.802 0.801428 0.550026 0.194211 0.132162 
12 1 164.469 -496.167 -165.67 0.106362 0.179497 0.225836 0.95156 
10 1 -499.759 -499.661 -169.663 0.811283 0.49378 0.312326 0.0213039 
13 1 -496.008 -164.435 -168.101 0.406123 0.759523 0.470137 0.19277 
15 1 167.369 -170.772 -163.794 0.0547961 0.516592 0.248527 0.817536 
14 1 -164.446 -163.105 -166.126 0.144928 0.947491 0.222304 0.17843 
11 1 -165.896 498.999 -163.196 0.682893 0.649075 0.143 0.303165 
3 1 171.494 -489.916 495.223 0.305555 0.488979 0.780122 0.242785 
4 1 -496.567 -170.073 497.362 0.262639 0.781494 0.565939 -0.000392795 
5 1 -164.743 -164.996 496.868 0.688549 0.644688 0.318406 0.0943103 
8 1 -163.027 165.328 498.294 0.669786 0.495652 0.499052 0.23804 
7 1 496.685 165.389 496.92 0.376131 0.599264 0.440174 0.552861 
1 1 -494.367 -499.602 498.153 0.60001 0.0967115 0.621093 0.494852 
ITEM: TIMESTEP
20000
ITEM: NUMBER OF ATOMS
15
ITEM: BOX BOUNDS pp pp pp
-5.0000000000000000e+02 5.0000000000000000e+02
-5.0000000000000000e+02 5.0000000000000000e+02
-5.0000000000000000e+02 5.0000000000000000e+02
ITEM: ATOMS id type x y z c_q[1] c_q[2] c_q[3] c_q[4] 
2 1 -161.961 -496.725 -492.886 0.207646 0.636455 0.596903 0.442171 
6 1 162.808 -176.853 -492.761 0.725959 0.397594 0.532215 0.177903 
5 1 -163.544 -163.413 -498.453 0.690996 0.634882 0.302498 0.167165 
9 1 168.123 169.721 -496.514 0.792975 0.563534 0.175314 0.151278 
10 1 -498.508 -498.461 -172.883 0.850792 0.455525 0.260584 -0.0273253 
13 1 -496.81 -159.363 -169.561 0.406958 0.731027 0.505993 0.209657 
11 1 -168.715 497.441 -171.95 0.681196 0.670834 0.124849 0.265267 
12 1 163.928 -496.306 -167.448 0.0784888 0.186375 0.218315 0.954695 
15 1 164.976 -174.783 -165.191 0.0851021 0.506121 0.25866 0.818348 
14 1 -163.057 -160.629 -166.066 0.156335 0.947231 0.180203 0.214102 
3 1 170.589 -487.028 497.839 0.278615 0.502138 0.782729 0.239931 
4 1 -494.085 -167.432 495.568 0.316538 0.763289 0.560755 0.052423 
8 1 -156.479 165.347 495.122 0.658892 0.477868 0.539096 0.216516 
7 1 494.16 165.78 496.746 0.392081 0.635986 0.446706 0.492186 
1 1 -491.679 496.195 498.305 0.601897 0.113019 0.602716 0.511546 
ITEM: TIMESTEP
30000
ITEM: NUMBER OF ATOMS
15
ITEM: BOX BOUNDS pp pp pp
-5.0000000000000000e+02 5.0000000000000000e+02
-5.0000000000000000e+02 5.0000000000000000e+02
-5.0000000000000000e+02 5.0000000000000000e+02
ITEM: ATOMS id type x y z c_q[1] c_q[2] c_q[3] c_q[4] 
2 1 -164.852 -493.964 -493.318 0.214136 0.650938 0.587206 0.430831 
6 1 161.536 -172.387 -490.587 0.708183 0.407268 0.537065 0.210167 
5 1 -162.426 -164.286 -498.066 0.66888 0.638052 0.317884 0.210804 
9 1 171.258 167.25 -495.86 0.816513 0.540117 0.141404 0.14692 
1 1 -493.586 492.923 -495.997 0.596071 0.130607 0.59776 0.519927 
11 1 -167.434 -498.194 -175.857 0.650976 0.707544 0.138579 0.237502 
12 1 169.607 -496.536 -169.542 0.0893784 0.180347 0.2132 0.95605 
13 1 500.555 -156.032 -168.645 0.457396 0.717698 0.471995 0.23004 
10 1 -498.135 498.429 -176.398 0.819396 0.48962 0.297248 -0.0225158 
15 1 168.885 -176.391 -165.823 0.0545884 0.504464 0.254248 0.823344 
14 1 -166.181 -160.009 -165.108 0.169721 0.914619 0.221793 0.292362 
3 1 172.491 -490.491 495.718 0.293097 0.443491 0.79605 0.289334 
4 1 -493.397 -169.487 493.556 0.353883 0.743213 0.567265 0.0247332 
7 1 492.798 162.433 493.812 0.428634 0.636974 0.442457 0.463432 
8 1 -154.745 168.553 496.464 0.652834 0.491925 0.539923 0.200751 
ITEM: TIMESTEP
40000
ITEM: NUMBER OF ATOMS
15
ITEM: BOX BOUNDS pp pp pp
-5.0000000000000000e+02 5.0000000000000000e+02
-5.0000000000000000e+02 5.0000000000000000e+02
-5.0000000000000000e+02 5.0000000000000000e+02
ITEM: ATOMS id type x y z c_q[1] c_q[2] c_q[3] c_q[4] 
2 1 -165.231 -494.633 -493.389 0.24803 0.640715 0.596148 0.415418 
5 1 -161.26 -168.74 -498.015 0.674144 0.612265 0.336915 0.23906 
6 1 166.668 -167.678 -486.328 0.722064 0.375092 0.525067 0.249466 
9 1 172.007 166.35 -494.654 0.845577 0.5175 0.0940596 0.091357 
1 1 -493.106 495.558 -492.494 0.643086 0.156362 0.542826 0.517042 
11 1 -170.111 -495.241 -174.292 0.646407 0.708988 0.163853 0.229446 
12 1 169.204 -498.035 -172.015 0.10223 0.196331 0.233324 0.94687 
13 1 -493.201 -151.28 -176.608 0.469433 0.705227 0.463737 0.259297 
10 1 -496.745 496.21 -177.529 0.846274 0.439224 0.300402 0.025722 
15 1 168.811 -179.529 -164.479 0.048207 0.504771 0.2306 0.830486 
14 1 -163.517 -162.276 -163.771 0.160014 0.900262 0.214839 0.343173 
3 1 173.165 -489.942 497.65 0.312512 0.383696 0.810972 0.312151 
4 1 -498.931 -170.849 495.373 0.358149 0.743865 0.563682 0.0256284 
7 1 485.733 160.132 494.03 0.431594 0.654728 0.40684 0.46855 
8 1 -159.475 170.885 493.661 0.630292 0.443952 0.594257 0.229124 
ITEM: TIMESTEP
50000
ITEM: NUMBER OF ATOMS
15
ITEM: BOX BOUNDS pp pp pp
-5.0000000000000000e+02 5.0000000000000000e+02
-5.0000000000000000e+02 5.0000000000000000e+02
-5.0000000000000000e+02 5.0000000000000000e+02
ITEM: ATOMS id type x y z c_q[1] c_q[2] c_q[3] c_q[4] 
2 1 -169.237 -497.086 -489.723 0.248263 0.634355 0.59564 0.425643 
6 1 166.301 -168.282 -489.227 0.743225 0.346861 0.523624 0.230481 
9 1 170.525 164.158 -493.268 0.85498 0.505673 0.0861 0.0767545 
1 1 -489.269 494.745 -495.853 0.668739 0.193503 0.526789 0.487685 
13 1 -491.173 -152.872 -175.449 0.49145 0.674593 0.480074 0.270056 
10 1 -498.155 498.398 -172.348 0.823133 0.485183 0.289274 0.0580563 
11 1 -171.674 498.112 -177.186 0.660009 0.70508 0.133451 0.222353 
12 1 170.688 498.762 -168.944 0.113078 0.218984 0.221743 0.943445 
15 1 172.359 -173.342 -164.687 0.0231605 0.570927 0.198734 0.796248 
14 1 -159.882 -163.832 -162.151 0.137784 0.895967 0.245275 0.343655 
3 1 176.541 -489.846 497.815 0.354522 0.372722 0.792196 0.328358 
4 1 495.076 -170.364 498.268 0.411235 0.721043 0.557222 0.0220394 
5 1 -160.365 -161.775 499.373 0.68099 0.578792 0.362187 0.264715 
8 1 -161.734 164.84 492.297 0.68093 0.407682 0.565457 0.224474 
7 1 486.88 163.43 492.524 0.438964 0.639327 0.417588 0.473489 
ITEM: TIMESTEP
60000
ITEM: NUMBER OF ATOMS
15
ITEM: BOX BOUNDS pp pp pp
-5.0000000000000000e+02 5.0000000000000000e+02
-5.0000000000000000e+02 5.0000000000000000e+02
-5.0000000000000000e+02 5.0000000000000000e+02
ITEM: ATOMS id type x y z c_q[1] c_q[2] c_q[3] c_q[4] 
2 1 -170.64 -492.673 -492.072 0.22894 0.618981 0.623322 0.419427 
6 1 165.162 -171.595 -491.696 0.719311 0.340191 0.566144 0.215273 
4 1 492.424 -171.76 498.879 0.428304 0.716877 0.547712 0.0515205 
9 1 175.283 164.562 -490.52 0.850814 0.512088 0.104568 0.0542777 
1 1 -490.928 496.96 -493.356 0.670962 0.204751 0.508307 0.49951 
10 1 -499.062 -498.708 -176.055 0.829255 0.510558 0.221157 0.052505 
12 1 173.674 -499.449 -170.154 0.112747 0.246848 0.224828 0.935845 
15 1 170.745 -171.609 -164.467 0.0174264 0.569043 0.191997 0.79939 
13 1 -495.041 -148.851 -180.602 0.488716 0.700807 0.437912 0.279749 
11 1 -170.804 493.191 -176.928 0.672273 0.694206 0.125811 0.224274 
14 1 -159.77 -163.305 -161.663 0.134249 0.87873 0.278825 0.363411 
3 1 180.593 -488.779 492.716 0.335564 0.353853 0.785947 0.380094 
5 1 -163.954 -156.091 497.557 0.653203 0.608938 0.382072 0.237786 
8 1 -161.128 164.008 492.001 0.703917 0.421853 0.534787 0.201357 
7 1 487.985 160.022 494.611 0.487034 0.655863 0.358667 0.451663 
ITEM: TIMESTEP
70000
ITEM: NUMBER OF ATOMS
15
ITEM: BOX BOUNDS pp pp pp
-5.0000000000000000e+02 5.0000000000000000e+02
-5.0000000000000000e+02 5.0000000000000000e+02
-5.0000000000000000e+02 5.0000000000000000e+02
ITEM: ATOMS id type x y z c_q[1] c_q[2] c_q[3] c_q[4] 
2 1 -165.91 -493.012 -492.816 0.240718 0.632794 0.61176 0.409117 
6 1 169.9 -167.828 -488.078 0.728783 0.347134 0.55803 0.19229 
9 1 178.133 164.099 -491.603 0.868879 0.486365 0.0797676 0.0462102 
1 1 -488.019 494.612 -494.49 0.652619 0.205208 0.53444 0.496339 
12 1 170.916 -498.465 -169.677 0.146546 0.202393 0.251391 0.935074 
10 1 497.988 499.93 -173.074 0.855931 0.482614 0.184359 0.0218334 
13 1 -497.489 -145.094 -182.878 0.482381 0.721204 0.439664 0.232096 
11 1 -164.788 498.043 -179.977 0.676986 0.703163 0.118171 0.182449 
15 1 169.529 -170.633 -163.172 0.0101572 0.590653 0.110639 0.79924 
14 1 -158.456 -165.533 -159.852 0.155321 0.913553 0.215085 0.308277 
3 1 176.333 -487.576 495.53 0.324036 0.335742 0.776584 0.423314 
4 1 490.876 -168.125 494.134 0.478031 0.709426 0.517856 0.00524504 
5 1 -166.521 -164.403 497.168 0.66158 0.587683 0.370021 0.282887 
8 1 -165.88 165.67 488.913 0.707205 0.439903 0.505243 0.225999 
7 1 483.478 160.65 490.449 0.496343 0.650222 0.327531 0.47284 
ITEM: TIMESTEP
80000
ITEM: NUMBER OF ATOMS
15
ITEM: BOX BOUNDS pp pp pp
-5.0000000000000000e+02 5.0000000000000000e+02
-5.0000000000000000e+02 5.0000000000000000e+02
-5.0000000000000000e+02 5.0000000000000000e+02
ITEM: ATOMS id type x y z c_q[1] c_q[2] c_q[3] c_q[4] 
2 1 -168.266 -490.957 -488.684 0.252361 0.621869 0.609289 0.422326 
6 1 177.852 -164.695 -489.648 0.736954 0.334561 0.545445 0.217847 
9 1 176.784 166.104 -496.669 0.853166 0.51229 0.0827257 0.0531373 
1 1 -490.024 495.146 -494.53 0.630846 0.187516 0.531717 0.533056 
13 1 499.682 -149.566 -180.031 0.43945 0.731964 0.446566 0.267753 
10 1 -499.375 495.868 -174.756 0.87424 0.463284 0.14153 0.0322684 
11 1 -167.692 498.989 -178.376 0.668171 0.721243 0.0744316 0.166779 
12 1 174.083 497.945 -168.27 0.118718 0.197095 0.244301 0.942007 
15 1 169.767 -173.357 -163.616 0.0219159 0.567419 0.14576 0.810129 
14 1 -155.817 -168.438 -161.85 0.141717 0.88091 0.270904 0.361282 
3 1 177.013 -485.884 498.773 0.310007 0.320893 0.792381 0.415999 
4 1 491.657 -167.587 491.704 0.490945 0.702138 0.514749 0.0317589 
5 1 -172.275 -163.398 499.265 0.671981 0.563788 0.392291 0.276933 
7 1 476.531 158.751 489.836 0.50297 0.611312 0.34364 0.505203 
8 1 -169.787 168.243 491.45 0.701634 0.451822 0.483184 0.264763 
ITEM: TIMESTEP
90000
ITEM: NUMBER OF ATOMS
15
ITEM: BOX BOUNDS pp pp pp
-5.0000000000000000e+02 5.0000000000000000e+02
-5.0000000000000000e+02 5.0000000000000000e+02
-5.0000000000000000e+02 5.0000000000000000e+02
ITEM: ATOMS id type x y z c_q[1] c_q[2] c_q[3] c_q[4] 
2 1 -168.145 -493.023 -494.427 0.291253 0.604192 0.592885 0.445659 
3 1 177.735 -487.086 -499.716 0.314086 0.363306 0.775956 0.408964 
6 1 177.723 -169.198 -490.066 0.731326 0.33661 0.552433 0.216041 
5 1 -165.336 -163.07 -492.926 0.668364 0.59178 0.365801 0.263204 
9 1 173.755 171.605 -498.586 0.837628 0.52256 0.150053 0.052868 
1 1 -490.811 490.007 -494.369 0.68216 0.19454 0.48804 0.508556 
11 1 -165.595 -497.277 -179.293 0.66863 0.724489 0.0981495 0.135705 
13 1 499.479 -146.136 -174.02 0.482841 0.74938 0.381754 0.244044 
12 1 168.914 496.998 -169.023 0.136551 0.157283 0.264359 0.941664 
10 1 499.084 497.614 -169.755 0.873053 0.47348 0.116358 0.00750899 
14 1 -153.662 -172.329 -162.645 0.140048 0.899715 0.233525 0.341124 
15 1 177.217 -171.536 -160.675 0.0493429 0.550122 0.167281 0.816669 
4 1 490.52 -166.31 491.993 0.547534 0.663356 0.505449 0.0684648 
7 1 479.636 161.553 488.47 0.466143 0.580339 0.354762 0.565739 
8 1 -175.077 170.101 489.222 0.688038 0.466974 0.474625 0.288567 
ITEM: TIMESTEP
100000
ITEM: NUMBER OF ATOMS
15
ITEM: BOX BOUNDS pp pp pp
-5.0000000000000000e+02 5.0000000000000000e+02
-5.0000000000000000e+02 5.0000000000000000e+02
-5.0000000000000000e+02 5.0000000000000000e+02
ITEM: ATOMS id type x y z c_q[1] c_q[2] c_q[3] c_q[4] 
2 1 -168.625 -497.292 -495.801 0.346298 0.604546 0.567155 0.439245 
6 1 177.223 -167.888 -490.716 0.729565 0.310225 0.583951 0.174631 
5 1 -164.597 -163.659 -495.351 0.667351 0.60771 0.339163 0.26514 
1 1 -490.582 486.917 -496.915 0.662974 0.174073 0.458722 0.565455 
11 1 -161.008 -496.782 -184.667 0.665823 0.736703 0.0358021 0.112551 
12 1 176.089 -498.833 -170.281 0.179294 0.179143 0.266634 0.929875 
13 1 499.79 -148.565 -175.738 0.485699 0.743109 0.382782 0.255664 
10 1 -499.293 497.31 -172.151 0.864779 0.490985 0.0819403 0.0661515 
14 1 -152.223 -171.16 -161.333 0.131106 0.912718 0.261052 0.285673 
15 1 179.194 -169.382 -165.88 0.0817655 0.555147 0.163054 0.811505 
3 1 174.802 -483.324 496.196 0.30506 0.360258 0.786692 0.39783 
4 1 489.869 -166.969 493.943 0.509781 0.650353 0.559714 0.0623308 
7 1 479.588 161.867 490.768 0.483767 0.564649 0.318245 0.5881 
8 1 -176.488 173.308 489.497 0.69012 0.488025 0.469027 0.256085 
9 1 178.096 171.908 496.082 0.851074 0.507906 0.119684 0.0581334 
ITEM: TIMESTEP
110000
ITEM: NUMBER OF ATOMS
15
ITEM: BOX BOUNDS pp pp pp
-5.0000000000000000e+02 5.0000000000000000e+02
-5.0000000000000000e+02 5.0000000000000000e+02
-5.0000000000000000e+02 5.0000000000000000e+02
ITEM: ATOMS id type x y z c_q[1] c_q[2] c_q[3] c_q[4] 
6 1 179.129 -168.678 -489.537 0.723033 0.315557 0.59256 0.162849 
2 1 -166.025 497.989 -498.184 0.369229 0.570923 0.522862 0.514133 
11 1 -154.88 -492.642 -185.707 0.685255 0.720499 0.0592817 0.0882758 
13 1 -499.271 -147.515 -176.708 0.474263 0.754364 0.387845 0.235768 
10 1 -499.438 499.342 -171.926 0.866675 0.487463 0.103403 0.0237072 
12 1 170.522 497.791 -169.3 0.180816 0.180142 0.284008 0.924226 
14 1 -148.398 -166.811 -159.547 0.164374 0.908498 0.240333 0.299753 
15 1 179.423 -173.574 -162.962 0.135664 0.577533 0.163102 0.78832 
3 1 178.56 -479.454 498.047 0.346749 0.351675 0.769575 0.404777 
4 1 486.367 -170.081 492.464 0.528297 0.623884 0.564422 0.114448 
5 1 -169.439 -161.159 498.244 0.679335 0.576585 0.339844 0.300932 
7 1 482.538 158.958 495.244 0.471752 0.586509 0.338203 0.564868 
8 1 -174.507 170.514 489.375 0.671783 0.474988 0.505174 0.260563 
9 1 175.578 176.749 494.2 0.843811 0.506332 0.15887 0.0798259 
1 1 -485.37 482.74 499.888 0.665532 0.193356 0.454574 0.559502 
ITEM: TIMESTEP
120000
ITEM: NUMBER OF ATOMS
15
ITEM: BOX BOUNDS pp pp pp
-5.0000000000000000e+02 5.0000000000000000e+02
-5.0000000000000000e+02 5.0000000000000000e+02
-5.0000000000000000e+02 5.0000000000000000e+02
ITEM: ATOMS id type x y z c_q[1] c_q[2] c_q[3] c_q[4] 
6 1 180.73 -168.503 -482.439 0.696381 0.312553 0.621048 0.177942 
2 1 -165.658 499.395 -494.43 0.353945 0.562264 0.539711 0.517005 
11 1 -152.928 -491.356 -184.546 0.689024 0.721043 0.0293351 0.0669498 
13 1 -494.161 -148.715 -177.285 0.458861 0.753862 0.395276 0.254747 
12 1 170.278 494.631 -169.073 0.130445 0.14022 0.266937 0.944493 
10 1 498.528 495.332 -171.55 0.865295 0.485773 0.120683 0.0269281 
14 1 -147.14 -169.342 -162 0.113369 0.902415 0.278589 0.308516 
15 1 182.542 -170.168 -165.327 0.111734 0.579985 0.165527 0.789768 
3 1 180.527 -482.965 492.391 0.342492 0.358101 0.762263 0.416435 
4 1 484.355 -172.977 493.905 0.506224 0.649516 0.560431 0.088221 
5 1 -171.212 -164.298 498.428 0.702952 0.54212 0.302487 0.347084 
7 1 480.596 158.712 492.457 0.470041 0.597912 0.337475 0.554683 
8 1 -174.495 174.523 484.291 0.68512 0.464832 0.497249 0.259393 
9 1 175.12 177.139 491.195 0.839246 0.529781 0.11154 0.0505684 
1 1 -486.096 478.394 497.653 0.679212 0.21983 0.442244 0.542923 
ITEM: TIMESTEP
130000
ITEM: NUMBER OF ATOMS
15
ITEM: BOX BOUNDS pp pp pp
-5.0000000000000000e+02 5.0000000000000000e+02
-5.0000000000000000e+02 5.0000000000000000e+02
-5.0000000000000000e+02 5.0000000000000000e+02
ITEM: ATOMS id type x y z c_q[1] c_q[2] c_q[3] c_q[4] 
2 1 -162.125 -497.327 -496.636 0.360167 0.572012 0.527397 0.514718 
6 1 178.626 -169.741 -483.549 0.694891 0.320945 0.613324 0.194818 
1 1 -483.752 482.004 -500.417 0.660741 0.22573 0.444358 0.56126 
11 1 -149.845 -494.732 -187.047 0.701066 0.71025 0.00784379 0.0631647 
15 1 185.366 -174.531 -166.509 0.109304 0.561481 0.214199 0.791777 
13 1 -497.475 -147.9 -178.723 0.458445 0.745475 0.447848 0.183107 
10 1 498.435 496.155 -168.772 0.868849 0.480252 0.116522 0.0296978 
14 1 -146.252 -168.599 -164.882 0.0529016 0.9004 0.308727 0.301942 
12 1 165.741 489.554 -167.147 0.13226 0.119327 0.261817 0.948536 
3 1 180.09 -477.923 489.622 0.326585 0.376266 0.763751 0.410427 
4 1 486.329 -174.083 499.04 0.477784 0.609902 0.625532 0.0919351 
5 1 -175.035 -162.134 498.095 0.693401 0.541036 0.321759 0.350636 
7 1 485.977 155.133 491.333 0.492325 0.619831 0.342428 0.506131 
8 1 -174.434 170.831 480.044 0.650227 0.470631 0.53755 0.258364 
9 1 184.618 175.266 495.684 0.812864 0.569963 0.118903 -0.0160261 
ITEM: TIMESTEP
140000
ITEM: NUMBER OF ATOMS
15
ITEM: BOX BOUNDS pp pp pp
-5.0000000000000000e+02 5.0000000000000000e+02
-5.0000000000000000e+02 5.0000000000000000e+02
-5.0000000000000000e+02 5.0000000000000000e+02
ITEM: ATOMS id type x y z c_q[1] c_q[2] c_q[3] c_q[4] 
2 1 -163.402 -497.293 -494.959 0.338319 0.568317 0.537862 0.522743 
6 1 179.028 -168.885 -491.199 0.700928 0.298833 0.608609 0.221346 
5 1 -175.381 -165.723 -499.291 0.678534 0.535767 0.350972 0.359672 
11 1 -142.882 -493.857 -185.601 0.694983 0.710466 0.0301378 0.106431 
15 1 184.613 -175.339 -169.758 0.136818 0.543767 0.230929 0.795154 
13 1 -499.012 -150.696 -179.146 0.429705 0.739399 0.471475 0.215299 
14 1 -146.968 -163.086 -166.519 0.0585909 0.892124 0.288908 0.342365 
10 1 497.983 -500.014 -165.543 0.88308 0.452959 0.114422 0.0436467 
12 1 171.613 491.49 -165.575 0.118299 0.152144 0.26192 0.945651 
3 1 185.135 -479.822 488.893 0.305358 0.364642 0.77924 0.40814 
4 1 487.197 -179.046 497.731 0.490245 0.612458 0.602688 0.14602 
7 1 485.77 155.808 492.789 0.472853 0.629486 0.379517 0.485926 
8 1 -175.297 168.924 483.293 0.655458 0.466647 0.542568 0.241319 
9 1 183.301 181.801 499.215 0.842234 0.520946 0.137621 -0.0178176 
1 1 -482.052 482.886 495.533 0.639522 0.229077 0.471003 0.562754 
ITEM: TIMESTEP
150000
ITEM: NUMBER OF ATOMS
15
ITEM: BOX BOUNDS pp pp pp
-5.0000000000000000e+02 5.0000000000000000e+02
-5.0000000000000000e+02 5.0000000000000000e+02
-5.0000000000000000e+02 5.0000000000000000e+02
ITEM: ATOMS id type x y z c_q[1] c_q[2] c_q[3] c_q[4] 
2 1 -168.866 -495.008 -491.929 0.355841 0.593909 0.498752 0.521437 
5 1 -173.432 -165.586 -496.695 0.690388 0.499502 0.315099 0.417822 
6 1 174.345 -166.996 -495.815 0.660141 0.308098 0.644675 0.231696 
9 1 184.736 178.793 -497.828 0.832731 0.54225 0.0963411 -0.0569333 
11 1 -136.23 -493.292 -186.53 0.709479 0.683579 0.0545813 0.162421 
15 1 182.336 -173.352 -170.592 0.140118 0.500235 0.293618 0.802446 
13 1 -497.522 -155.521 -179.615 0.427555 0.741715 0.488485 0.168636 
14 1 -153.621 -167.608 -168.413 0.0656467 0.901031 0.277019 0.327251 
12 1 172.018 484.872 -167.281 0.112609 0.187285 0.269712 0.937816 
10 1 495.866 496.275 -165.051 0.864545 0.468853 0.153048 0.0965093 
3 1 179.658 -479.934 490.608 0.280798 0.404972 0.766744 0.411404 
4 1 488.609 -180.068 498.242 0.498263 0.56475 0.621967 0.214357 
7 1 488.393 156.342 485.671 0.454645 0.650676 0.375901 0.478139 
8 1 -178.066 169.291 486.921 0.63429 0.462338 0.566036 0.252037 
1 1 -473.448 481.035 497.035 0.620088 0.202483 0.482558 0.584491 
ITEM: TIMESTEP
160000
ITEM: NUMBER OF ATOMS
15
ITEM: BOX BOUNDS pp pp pp
-5.0000000000000000e+02 5.0000000000000000e+02
-5.0000000000000000e+02 5.0000000000000000e+02
-5.0000000000000000e+02 5.0000000000000000e+02
ITEM: ATOMS id type x y z c_q[1] c_q[2] c_q[3] c_q[4] 
5 1 -173.582 -164.43 -496.036 0.694069 0.480295 0.246843 0.476081 
6 1 173.344 -161.026 -497.62 0.709642 0.340679 0.568959 0.237973 
9 1 176.802 174.798 499.078 0.800145 0.59321 0.0787059 -0.0409331 
2 1 -174.815 497.866 -497.455 0.359611 0.587387 0.521089 0.504106 
11 1 -134.967 -497.728 -192.796 0.71367 0.677201 0.0669511 0.166109 
14 1 -151.937 -167.033 -168.937 0.0764469 0.911651 0.259628 0.309259 
15 1 179.901 -172.198 -171.415 0.13649 0.531294 0.301049 0.780043 
13 1 497.108 -155.649 -177.764 0.413649 0.74072 0.506532 0.153798 
12 1 170.419 483.962 -166.114 0.0822763 0.194192 0.269122 0.939731 
10 1 497.355 -497.67 -164.194 0.8507 0.481829 0.172242 0.120347 
3 1 183.449 -487.304 494.31 0.299605 0.428269 0.732054 0.436944 
4 1 492.499 -180.843 499.92 0.47808 0.598103 0.615048 0.188226 
7 1 496.645 153.234 481.668 0.454228 0.658081 0.374132 0.469714 
8 1 -175.598 171.217 489.816 0.633232 0.430127 0.597372 0.23907 
1 1 -476.435 484.678 491.69 0.644999 0.199432 0.436895 0.594412 
ITEM: TIMESTEP
170000
ITEM: NUMBER OF ATOMS
15
ITEM: BOX BOUNDS pp pp pp
-5.0000000000000000e+02 5.0000000000000000e+02
-5.0000000000000000e+02 5.0000000000000000e+02
-5.0000000000000000e+02 5.0000000000000000e+02
ITEM: ATOMS id type x y z c_q[1] c_q[2] c_q[3] c_q[4] 
2 1 -177.814 -496.598 -492.356 0.364675 0.602116 0.480339 0.523204 
5 1 -173.526 -157.818 -496.38 0.6999 0.476704 0.230391 0.479388 
9 1 178.281 171.308 -498.204 0.780698 0.600314 0.172752 -0.0170528 
11 1 -135.52 -497.249 -196.566 0.719008 0.671879 0.0651377 0.165418 
10 1 496.913 499.863 -168.117 0.853395 0.494427 0.157258 0.050285 
14 1 -148.757 -168.031 -166.306 0.0445528 0.90982 0.281131 0.302006 
15 1 180.858 -173.403 -170.945 0.147433 0.570016 0.306224 0.748045 
13 1 496.667 -159.329 -178.234 0.414792 0.739766 0.493357 0.193115 
12 1 171.472 483.798 -165.158 0.130058 0.168591 0.262303 0.941201 
3 1 181.689 -484.6 496.523 0.293578 0.389903 0.752139 0.442804 
4 1 492.057 -180.759 499.164 0.471486 0.585497 0.613996 0.24063 
6 1 172.672 -164.133 498.963 0.695089 0.330392 0.588264 0.248272 
7 1 -499.201 157.858 484.524 0.448602 0.667734 0.406573 0.433113 
8 1 -173.136 169.587 489.097 0.646758 0.44156 0.547158 0.295546 
1 1 -471.272 490.445 488.771 0.673708 0.186639 0.444065 0.560437 
ITEM: TIMESTEP
180000
ITEM: NUMBER OF ATOMS
15
ITEM: BOX BOUNDS pp pp pp
-5.0000000000000000e+02 5.0000000000000000e+02
-5.0000000000000000e+02 5.0000000000000000e+02
-5.0000000000000000e+02 5.0000000000000000e+02
ITEM: ATOMS id type x y z c_q[1] c_q[2] c_q[3] c_q[4] 
2 1 -182.911 -492.576 -490.804 0.379291 0.599323 0.467009 0.528066 
5 1 -173.469 -160.572 -493.269 0.711214 0.458354 0.238916 0.476452 
11 1 -138.236 -491.969 -199.387 0.724815 0.651887 0.145337 0.169009 
10 1 499.135 -498.739 -169.772 0.87155 0.460094 0.158547 0.0598074 
15 1 180.828 -177.006 -179.84 0.148976 0.556669 0.302742 0.759127 
13 1 497.059 -161.196 -173.486 0.396726 0.702755 0.562579 0.179581 
14 1 -153.831 -168.614 -166.691 0.0931314 0.897554 0.300144 0.309253 
12 1 167.76 484.704 -167.746 0.124267 0.152541 0.236239 0.951567 
3 1 182.287 -485.71 497.106 0.296861 0.415134 0.754583 0.412483 
4 1 497.036 -179.414 499.717 0.431775 0.574303 0.646704 0.255969 
6 1 166.484 -162.339 499.203 0.697516 0.328422 0.581238 0.260332 
7 1 -496.57 157.598 484.271 0.496174 0.599427 0.44933 0.438863 
8 1 -177.026 175.471 493.591 0.68116 0.417172 0.538039 0.269263 
9 1 177.638 171.905 -499.64 0.796253 0.596153 0.102674 -0.00633832 
1 1 -468.497 489.612 489.625 0.722251 0.192774 0.42221 0.512767 
ITEM: TIMESTEP
190000
ITEM: NUMBER OF ATOMS
15
ITEM: BOX BOUNDS pp pp pp
-5.0000000000000000e+02 5.0000000000000000e+02
-5.0000000000000000e+02 5.0000000000000000e+02
-5.0000000000000000e+02 5.0000000000000000e+02
ITEM: ATOMS id type x y z c_q[1] c_q[2] c_q[3] c_q[4] 
2 1 -179.183 -493.478 -494.673 0.373348 0.593197 0.463345 0.542255 
5 1 -179.045 -164.579 -495.887 0.740427 0.432941 0.207868 0.470236 
10 1 -494.068 -495.13 -176.029 0.859599 0.484547 0.155253 0.0469099 
11 1 -137.06 -489.021 -194.165 0.743032 0.609829 0.164146 0.221513 
14 1 -150.868 -168.253 -168.746 0.101832 0.880369 0.335409 0.319501 
15 1 183.957 -174.595 -185.067 0.116951 0.562427 0.248862 0.779786 
13 1 499.752 -158.975 -170.229 0.367837 0.716855 0.567293 0.170276 
12 1 168.942 488.651 -172.076 0.1252 0.0804494 0.202497 0.967909 
3 1 178.47 -486.667 494.755 0.274651 0.442864 0.75258 0.402569 
4 1 492.538 -176.11 493.905 0.44431 0.56878 0.645347 0.250211 
6 1 165.393 -160.587 -499.885 0.695526 0.329962 0.587887 0.248512 
7 1 -498.801 164.482 485.244 0.474982 0.670869 0.411323 0.393879 
8 1 -175.227 171.452 492.801 0.718711 0.442174 0.475346 0.248963 
9 1 177.032 172.426 -499.296 0.803479 0.587025 0.0889423 0.0437265 
1 1 -470.99 490.832 487.656 0.792185 0.156036 0.382535 0.44918 
ITEM: TIMESTEP
200000
ITEM: NUMBER OF ATOMS
15
ITEM: BOX BOUNDS pp pp pp
-5.0000000000000000e+02 5.0000000000000000e+02
-5.0000000000000000e+02 5.0000000000000000e+02
-5.0000000000000000e+02 5.0000000000000000e+02
ITEM: ATOMS id type x y z c_q[1] c_q[2] c_q[3] c_q[4] 
2 1 -182.483 -493.281 -492.548 0.343963 0.630365 0.44609 0.534167 
5 1 -173.791 -168.307 -495.968 0.744314 0.407764 0.208282 0.486152 
10 1 -491.442 -498.94 -177.341 0.846716 0.493041 0.190546 0.0606211 
11 1 -132.65 -487.113 -192.936 0.732883 0.622025 0.20013 0.189513 
14 1 -144.661 -167.058 -168.584 0.109737 0.861087 0.359652 0.342254 
15 1 185.06 -177.952 -181.936 0.151401 0.569015 0.230889 0.77459 
13 1 495.068 -160.345 -171.741 0.323101 0.742617 0.577141 0.105043 
12 1 167.766 489.659 -173.745 0.152349 0.105196 0.262026 0.947136 
3 1 176.424 -494.953 490.589 0.249309 0.459317 0.752233 0.401271 
4 1 494.96 -174.73 497.276 0.421795 0.577188 0.662182 0.224629 
6 1 158.56 -161.814 492.873 0.690806 0.263625 0.599235 0.306931 
7 1 497.87 159.093 489.118 0.470339 0.718002 0.375463 0.349688 
8 1 -179.298 175.926 493.933 0.711349 0.440243 0.453618 0.307247 
9 1 180.506 168.066 489.637 0.831503 0.54745 0.0639117 0.0693967 
1 1 -470.184 490.548 485.754 0.83396 0.196406 0.321701 0.403043 
ITEM: TIMESTEP
210000
ITEM: NUMBER OF ATOMS
15
ITEM: BOX BOUNDS pp pp pp
-5.0000000000000000e+02 5.0000000000000000e+02
-5.0000000000000000e+02 5.0000000000000000e+02
-5.0000000000000000e+02 5.0000000000000000e+02
ITEM: ATOMS id type x y z c_q[1] c_q[2] c_q[3] c_q[4] 
2 1 -180.723 -492.393 -482.149 0.346725 0.637728 0.437536 0.530704 
10 1 -494.763 -497.315 -181.507 0.823692 0.534075 0.18955 -0.0191357 
11 1 -134.932 -486.285 -194.102 0.725514 0.631808 0.201142 0.184366 
15 1 188.452 -177.952 -187.494 0.146636 0.550226 0.229528 0.789346 
14 1 -148.967 -166.708 -168.378 0.130454 0.865177 0.348425 0.33623 
13 1 495.578 -162.136 -171.299 0.321748 0.747016 0.579308 0.0533639 
12 1 163.545 488 -174.542 0.192745 0.160085 0.231485 0.940019 
3 1 174.98 -492.706 490.961 0.238962 0.445076 0.756755 0.414881 
5 1 -177.344 -166.87 498.92 0.754774 0.399028 0.223286 0.470358 
4 1 496.347 -171.684 490.986 0.397565 0.600436 0.648227 0.247427 
6 1 159.395 -161.516 489.925 0.722952 0.281242 0.567888 0.27522 
7 1 -498.964 156.615 490.667 0.457378 0.710637 0.428492 0.31968 
8 1 -177.119 172.707 498.814 0.717863 0.400245 0.427794 0.376123 
9 1 176.532 167.626 490.154 0.846243 0.530968 0.040089 -0.0183946 
1 1 -471.77 488.658 490.528 0.845599 0.135321 0.343811 0.385285 
ITEM: TIMESTEP
220000
ITEM: NUMBER OF ATOMS
15
ITEM: BOX BOUNDS pp pp pp
-5.0000000000000000e+02 5.0000000000000000e+02
-5.0000000000000000e+02 5.0000000000000000e+02
-5.0000000000000000e+02 5.0000000000000000e+02
ITEM: ATOMS id type x y z c_q[1] c_q[2] c_q[3] c_q[4] 
2 1 -179.707 -492.668 -479.03 0.297611 0.626118 0.448607 0.564052 
5 1 -179.757 -167.926 -497.438 0.760351 0.36976 0.222707 0.485331 
10 1 -490.395 -497.716 -183.12 0.834876 0.5357 0.12402 0.02503 
11 1 -130.672 -488.098 -196.047 0.705161 0.643742 0.215911 0.204273 
15 1 186.198 -178.1 -188.418 0.14968 0.562293 0.200809 0.788098 
13 1 499.807 -162.137 -174.63 0.302565 0.762623 0.56809 0.0643029 
12 1 165.821 488.993 -176.022 0.255071 0.116205 0.23581 0.930499 
14 1 -147.344 -169.803 -165.355 0.146134 0.835626 0.397718 0.349564 
3 1 174.081 -492.123 488.642 0.241738 0.424385 0.775023 0.400998 
4 1 -497.748 -170.734 486.553 0.426857 0.567044 0.666323 0.228623 
6 1 157.784 -154.606 490.146 0.689455 0.245164 0.612073 0.299855 
7 1 -494.829 158.345 490.899 0.434269 0.739253 0.404007 0.318894 
8 1 -174.266 172.662 495.51 0.724174 0.398954 0.415099 0.379606 
9 1 175.305 168.844 491.418 0.858064 0.512087 0.0354785 0.0153258 
1 1 -473.185 489.258 492.782 0.827747 0.114119 0.36207 0.41318 
ITEM: TIMESTEP
230000
ITEM: NUMBER OF ATOMS
15
ITEM: BOX BOUNDS pp pp pp
-5.0000000000000000e+02 5.0000000000000000e+02
-5.0000000000000000e+02 5.0000000000000000e+02
-5.0000000000000000e+02 5.0000000000000000e+02
ITEM: ATOMS id type x y z c_q[1] c_q[2] c_q[3] c_q[4] 
2 1 -180.831 -493.655 -476.074 0.315876 0.680136 0.405153 0.522962 
5 1 -183.915 -167.61 -495.572 0.775392 0.330118 0.241856 0.480931 
10 1 -493.741 -498.729 -183.365 0.813105 0.570868 0.104361 0.0455995 
11 1 -128.151 -491.248 -195.223 0.699413 0.625394 0.26298 0.224824 
15 1 187.832 -179.408 -189.438 0.0991969 0.564098 0.226511 0.787811 
13 1 496.656 -159.274 -178.731 0.299777 0.74766 0.589857 0.0566343 
12 1 168.385 488.314 -172.543 0.220568 0.0595387 0.235282 0.944694 
14 1 -148.472 -170.348 -166.348 0.115819 0.841324 0.392514 0.35312 
3 1 173.189 -491.691 487.176 0.233462 0.395136 0.789053 0.40836 