ITEM: TIMESTEP
0
ITEM: NUMBER OF ATOMS
55
ITEM: BOX BOUNDS
-500.000000 500.000000
-500.000000 500.000000
-500.000000 500.000000
ITEM: ATOMS id type x y z c_q[1] c_q[2] c_q[3] c_q[4]
1 1 -500.000000 -500.000000 -500.000000 0.079563 0.542402 0.387633 0.741087
2 1 -250.000000 -500.000000 -500.000000 0.607477 0.256591 0.745016 0.100423
3 1 0.000000 -500.000000 -500.000000 0.269515 0.699478 0.398776 0.528270
4 1 250.000000 -500.000000 -500.000000 0.657110 0.222157 0.370448 0.617754
5 1 -500.000000 -250.000000 -500.000000 0.548170 0.398144 0.005417 0.735501
6 1 -250.000000 -250.000000 -500.000000 0.155494 0.691021 0.668297 0.227357
7 1 0.000000 -250.000000 -500.000000 0.575864 0.025836 0.457737 0.676897
8 1 250.000000 -250.000000 -500.000000 0.759488 0.005048 0.552777 0.342914
9 1 -500.000000 0.000000 -500.000000 0.692397 0.001832 0.002031 0.721511
10 1 -250.000000 0.000000 -500.000000 0.040262 0.439992 0.151505 0.884213
11 1 0.000000 0.000000 -500.000000 0.147309 0.622867 0.465301 0.611418
12 1 250.000000 0.000000 -500.000000 0.842470 0.356874 0.402153 0.034037
13 1 -500.000000 250.000000 -500.000000 0.561255 0.371178 0.556984 0.486813
14 1 -250.000000 250.000000 -500.000000 0.513235 0.770248 0.374091 0.058007
15 1 0.000000 250.000000 -500.000000 0.611221 0.673822 0.072444 0.408809
16 1 250.000000 250.000000 -500.000000 0.167731 0.623372 0.058067 0.761512
17 1 -500.000000 -500.000000 -250.000000 0.183160 0.444760 0.874249 0.065804
18 1 -250.000000 -500.000000 -250.000000 0.374589 0.232903 0.881228 0.169929
19 1 0.000000 -500.000000 -250.000000 0.609871 0.547479 0.099514 0.564288
20 1 250.000000 -500.000000 -250.000000 0.628865 0.680633 0.192002 0.323114
21 1 -500.000000 -250.000000 -250.000000 0.258109 0.794086 0.360763 0.415520
22 1 -250.000000 -250.000000 -250.000000 0.490818 0.537074 0.286594 0.623308
23 1 0.000000 -250.000000 -250.000000 0.347816 0.012733 0.579863 0.736628
24 1 250.000000 -250.000000 -250.000000 0.102441 0.327164 0.921211 0.183958
25 1 -500.000000 0.000000 -250.000000 0.440273 0.090564 0.781520 0.432647
26 1 -250.000000 0.000000 -250.000000 0.608910 0.316140 0.361223 0.631508
27 1 0.000000 0.000000 -250.000000 0.543990 0.009660 0.565908 0.619460
28 1 250.000000 0.000000 -250.000000 0.211630 0.268003 0.615472 0.710339
29 1 -500.000000 250.000000 -250.000000 0.551905 0.166328 0.534663 0.617957
30 1 -250.000000 250.000000 -250.000000 0.417686 0.343848 0.381500 0.749510
31 1 0.000000 250.000000 -250.000000 0.773893 0.176600 0.598956 0.105615
32 1 250.000000 250.000000 -250.000000 0.432642 0.688780 0.538155 0.220888
33 1 -500.000000 -500.000000 0.000000 0.235938 0.469603 0.376014 0.763164
34 1 -250.000000 -500.000000 0.000000 0.439391 0.888018 0.121690 0.059596
35 1 0.000000 -500.000000 0.000000 0.575581 0.199382 0.596536 0.522588
36 1 250.000000 -500.000000 0.000000 0.033812 0.659824 0.728925 0.179323
37 1 -500.000000 -250.000000 0.000000 0.368467 0.051516 0.657801 0.654886
38 1 -250.000000 -250.000000 0.000000 0.270294 0.704212 0.514026 0.408417
39 1 0.000000 -250.000000 0.000000 0.580473 0.418068 0.390369 0.579554
40 1 250.000000 -250.000000 0.000000 0.296880 0.663375 0.681514 0.085641
41 1 -500.000000 0.000000 0.000000 0.798431 0.005485 0.285023 0.530321
42 1 -250.000000 0.000000 0.000000 0.440942 0.673430 0.593337 0.003647
43 1 0.000000 0.000000 0.000000 0.212433 0.706734 0.648439 0.186886
44 1 250.000000 0.000000 0.000000 0.446996 0.475413 0.525210 0.546197
45 1 -500.000000 250.000000 0.000000 0.578014 0.657620 0.405144 0.263237
46 1 -250.000000 250.000000 0.000000 0.424893 0.586730 0.502515 0.471903
47 1 0.000000 250.000000 0.000000 0.411517 0.226018 0.185526 0.863220
48 1 250.000000 250.000000 0.000000 0.449440 0.473907 0.739692 0.162084
49 1 -500.000000 -500.000000 250.000000 0.252194 0.052784 0.885065 0.387649
50 1 -250.000000 -500.000000 250.000000 0.217823 0.492976 0.696923 0.473103
51 1 0.000000 -500.000000 250.000000 0.135181 0.355106 0.818019 0.431823
52 1 250.000000 -500.000000 250.000000 0.081763 0.784821 0.502754 0.353001
53 1 -500.000000 -250.000000 250.000000 0.416662 0.261568 0.753880 0.435477
54 1 -250.000000 -250.000000 250.000000 0.559340 0.311984 0.766270 0.051334
55 1 0.000000 -250.000000 250.000000 0.411721 0.578563 0.526221 0.467806
