ITEM: TIMESTEP
0
ITEM: NUMBER OF ATOMS
50
ITEM: BOX BOUNDS
-500.000000 500.000000
-500.000000 500.000000
-500.000000 500.000000
ITEM: ATOMS id type x y z c_q[1] c_q[2] c_q[3] c_q[4]
1 1 -500.000000 -500.000000 -500.000000 0.388014 0.638256 0.664186 0.030530
2 1 -250.000000 -500.000000 -500.000000 0.036623 0.266100 0.696289 0.665606
3 1 0.000000 -500.000000 -500.000000 0.349135 0.878246 0.292039 0.146637
4 1 250.000000 -500.000000 -500.000000 0.431716 0.528890 0.647584 0.338426
5 1 -500.000000 -250.000000 -500.000000 0.594732 0.757325 0.141330 0.229735
6 1 -250.000000 -250.000000 -500.000000 0.683922 0.162440 0.431515 0.565383
7 1 0.000000 -250.000000 -500.000000 0.587025 0.681293 0.240793 0.365049
8 1 250.000000 -250.000000 -500.000000 0.051217 0.449784 0.770286 0.449144
9 1 -500.000000 0.000000 -500.000000 0.234350 0.664883 0.277585 0.652654
10 1 -250.000000 0.000000 -500.000000 0.687373 0.451128 0.523582 0.223301
11 1 0.000000 0.000000 -500.000000 0.074756 0.029616 0.876286 0.475033
12 1 250.000000 0.000000 -500.000000 0.769764 0.623164 0.138170 0.006311
13 1 -500.000000 250.000000 -500.000000 0.317636 0.479804 0.638082 0.511612
14 1 -250.000000 250.000000 -500.000000 0.400109 0.067015 0.875811 0.261488
15 1 0.000000 250.000000 -500.000000 0.231090 0.137070 0.386122 0.882451
16 1 250.000000 250.000000 -500.000000 0.232233 0.427520 0.420394 0.765874
17 1 -500.000000 -500.000000 -250.000000 0.123488 0.827644 0.149240 0.526767
18 1 -250.000000 -500.000000 -250.000000 0.070904 0.594502 0.693045 0.401533
19 1 0.000000 -500.000000 -250.000000 0.190511 0.556035 0.593146 0.550189
20 1 250.000000 -500.000000 -250.000000 0.061869 0.246246 0.582788 0.771941
21 1 -500.000000 -250.000000 -250.000000 0.165057 0.259646 0.856153 0.415142
22 1 -250.000000 -250.000000 -250.000000 0.516720 0.567449 0.294566 0.569415
23 1 0.000000 -250.000000 -250.000000 0.046455 0.729726 0.171825 0.660166
24 1 250.000000 -250.000000 -250.000000 0.469313 0.472949 0.522644 0.531891
25 1 -500.000000 0.000000 -250.000000 0.120596 0.501078 0.623340 0.588069
26 1 -250.000000 0.000000 -250.000000 0.834952 0.484708 0.145751 0.216032
27 1 0.000000 0.000000 -250.000000 0.315708 0.575270 0.533771 0.533368
28 1 250.000000 0.000000 -250.000000 0.346221 0.127805 0.911848 0.179805
29 1 -500.000000 250.000000 -250.000000 0.197584 0.563852 0.397986 0.696160
30 1 -250.000000 250.000000 -250.000000 0.021190 0.801386 0.572697 0.171318
31 1 0.000000 250.000000 -250.000000 0.851770 0.430565 0.019077 0.297889
32 1 250.000000 250.000000 -250.000000 0.716881 0.494736 0.124759 0.475134
33 1 -500.000000 -500.000000 0.000000 0.310559 0.680986 0.550572 0.369706
34 1 -250.000000 -500.000000 0.000000 0.345004 0.603459 0.454873 0.556687
35 1 0.000000 -500.000000 0.000000 0.562940 0.593153 0.399308 0.414513
36 1 250.000000 -500.000000 0.000000 0.098208 0.556230 0.786797 0.248823
37 1 -500.000000 -250.000000 0.000000 0.115930 0.219284 0.549031 0.798148
38 1 -250.000000 -250.000000 0.000000 0.677628 0.592566 0.385951 0.201814
39 1 0.000000 -250.000000 0.000000 0.668325 0.533327 0.420184 0.303890
40 1 250.000000 -250.000000 0.000000 0.584407 0.517248 0.017360 0.624997
41 1 -500.000000 0.000000 0.000000 0.849772 0.223001 0.336729 0.338781
42 1 -250.000000 0.000000 0.000000 0.545956 0.745008 0.050831 0.379883
43 1 0.000000 0.000000 0.000000 0.251540 0.234717 0.874263 0.342491
44 1 250.000000 0.000000 0.000000 0.003998 0.034291 0.998708 0.037281
45 1 -500.000000 250.000000 0.000000 0.404074 0.872813 0.047195 0.269618
46 1 -250.000000 250.000000 0.000000 0.396213 0.169524 0.730829 0.529307
47 1 0.000000 250.000000 0.000000 0.165796 0.337934 0.328969 0.866079
48 1 250.000000 250.000000 0.000000 0.645637 0.547341 0.186847 0.498657
49 1 -500.000000 -500.000000 250.000000 0.018907 0.792439 0.060556 0.606644
50 1 -250.000000 -500.000000 250.000000 0.695319 0.485885 0.521762 0.090617
