ITEM: TIMESTEP
0
ITEM: NUMBER OF ATOMS
50
ITEM: BOX BOUNDS pp pp pp
-5.0000000000000000e+02 5.0000000000000000e+02
-5.0000000000000000e+02 5.0000000000000000e+02
-5.0000000000000000e+02 5.0000000000000000e+02
ITEM: ATOMS id type x y z c_q[1] c_q[2] c_q[3] c_q[4] 
1 1 -500 -500 -500 0.388014 0.638256 0.664186 0.03053 
2 1 -250 -500 -500 0.036623 0.2661 0.696289 0.665606 
3 1 0 -500 -500 0.349135 0.878246 0.292039 0.146637 
4 1 250 -500 -500 0.431716 0.52889 0.647584 0.338426 
5 1 -500 -250 -500 0.594732 0.757325 0.14133 0.229735 
6 1 -250 -250 -500 0.683922 0.16244 0.431515 0.565383 
7 1 0 -250 -500 0.587025 0.681293 0.240793 0.365049 
8 1 250 -250 -500 0.051217 0.449784 0.770286 0.449144 
9 1 -500 0 -500 0.23435 0.664883 0.277585 0.652654 
10 1 -250 0 -500 0.687373 0.451128 0.523582 0.223301 
11 1 0 0 -500 0.074756 0.029616 0.876286 0.475033 
12 1 250 0 -500 0.769764 0.623164 0.13817 0.006311 
13 1 -500 250 -500 0.317636 0.479804 0.638082 0.511612 
14 1 -250 250 -500 0.400109 0.067015 0.875811 0.261488 
15 1 0 250 -500 0.23109 0.13707 0.386122 0.882451 
16 1 250 250 -500 0.232233 0.42752 0.420394 0.765874 
17 1 -500 -500 -250 0.123488 0.827644 0.14924 0.526767 
18 1 -250 -500 -250 0.070904 0.594502 0.693045 0.401533 
19 1 0 -500 -250 0.190511 0.556035 0.593146 0.550189 
20 1 250 -500 -250 0.061869 0.246246 0.582788 0.771941 
21 1 -500 -250 -250 0.165057 0.259646 0.856153 0.415142 
22 1 -250 -250 -250 0.51672 0.567449 0.294566 0.569415 
23 1 0 -250 -250 0.046455 0.729726 0.171825 0.660166 
24 1 250 -250 -250 0.469313 0.472949 0.522644 0.531891 
25 1 -500 0 -250 0.120596 0.501078 0.62334 0.588069 
26 1 -250 0 -250 0.834952 0.484708 0.145751 0.216032 
27 1 0 0 -250 0.315708 0.57527 0.533771 0.533368 
28 1 250 0 -250 0.346221 0.127805 0.911848 0.179805 
29 1 -500 250 -250 0.197584 0.563852 0.397986 0.69616 
30 1 -250 250 -250 0.02119 0.801386 0.572697 0.171318 
31 1 0 250 -250 0.85177 0.430565 0.019077 0.297889 
32 1 250 250 -250 0.716881 0.494736 0.124759 0.475134 
33 1 -500 -500 0 0.310559 0.680986 0.550572 0.369706 
34 1 -250 -500 0 0.345004 0.603459 0.454873 0.556687 
35 1 0 -500 0 0.56294 0.593153 0.399308 0.414513 
36 1 250 -500 0 0.098208 0.55623 0.786797 0.248823 
37 1 -500 -250 0 0.11593 0.219284 0.549031 0.798148 
38 1 -250 -250 0 0.677628 0.592566 0.385951 0.201814 
39 1 0 -250 0 0.668325 0.533327 0.420184 0.30389 
40 1 250 -250 0 0.584407 0.517248 0.01736 0.624997 
41 1 -500 0 0 0.849772 0.223001 0.336729 0.338781 
42 1 -250 0 0 0.545956 0.745008 0.050831 0.379883 
43 1 0 0 0 0.25154 0.234717 0.874263 0.342491 
44 1 250 0 0 0.003998 0.034291 0.998708 0.037281 
45 1 -500 250 0 0.404074 0.872813 0.047195 0.269618 
46 1 -250 250 0 0.396213 0.169524 0.730829 0.529307 
47 1 0 250 0 0.165796 0.337934 0.328969 0.866079 
48 1 250 250 0 0.645637 0.547341 0.186847 0.498657 
49 1 -500 -500 250 0.018907 0.792439 0.060556 0.606644 
50 1 -250 -500 250 0.695319 0.485885 0.521762 0.090617 
ITEM: TIMESTEP
10000
ITEM: NUMBER OF ATOMS
50
ITEM: BOX BOUNDS pp pp pp
-5.0000000000000000e+02 5.0000000000000000e+02
-5.0000000000000000e+02 5.0000000000000000e+02
-5.0000000000000000e+02 5.0000000000000000e+02
ITEM: ATOMS id type x y z c_q[1] c_q[2] c_q[3] c_q[4] 
4 1 254.615 -497.773 -494.967 0.393254 0.568369 0.647014 0.321994 
5 1 -495.493 -251.343 -498.208 0.617905 0.733678 0.106795 0.261733 
6 1 -251.579 -254.879 -497.518 0.703226 0.138832 0.461477 0.522722 
10 1 -251.758 3.85674 -498.949 0.678221 0.467037 0.525845 0.213025 
12 1 247.169 2.94117 -495.66 0.759 0.638409 0.127744 -0.00584944 
3 1 0.00769256 496.811 -496.097 0.332922 0.888858 0.29357 0.113626 
19 1 0.525572 -498.406 -250.313 0.193103 0.550974 0.616032 0.528814 
21 1 -499.493 -246.989 -252.568 0.234368 0.207538 0.834305 0.453801 
22 1 -252.399 -251.734 -250.475 0.517644 0.565162 0.24906 0.59212 
23 1 1.07842 -247.197 -254.42 0.0228423 0.72611 0.1475 0.671183 
24 1 250.596 -251.887 -249.545 0.409168 0.503445 0.558718 0.51668 
28 1 246.86 -1.08754 -249.489 0.398992 0.105591 0.899833 0.141268 
26 1 -249.59 0.202597 -253.1 0.839773 0.484989 0.110388 0.217673 
27 1 -4.86395 3.44428 -250.39 0.322723 0.568308 0.53216 0.53822 
25 1 498.011 3.41574 -249.608 0.119273 0.507887 0.636208 0.568387 
30 1 -246.822 247.626 -242.873 0.00842485 0.808816 0.565608 0.160725 
31 1 2.59029 250.315 -252.228 0.855639 0.413445 0.0489182 0.307494 
32 1 252.694 252.968 -251.194 0.733025 0.445982 0.125909 0.497917 
29 1 499.732 253.791 -246.798 0.220903 0.571208 0.396471 0.683911 
18 1 -251.84 498.667 -247.813 0.0589992 0.590616 0.699322 0.398297 
20 1 250.441 498.876 -246.481 0.0344837 0.255509 0.569076 0.780819 
17 1 -500.052 498.538 -252.54 0.114526 0.822008 0.153362 0.536346 
37 1 -499.393 -255.067 -0.739365 0.133515 0.23877 0.598908 0.752643 
39 1 -5.66874 -246.211 -0.90509 0.663397 0.560333 0.381385 0.316981 
42 1 -255.172 -0.541787 -2.62496 0.543198 0.74846 0.0617059 0.375415 
48 1 250.866 255.758 -1.57469 0.648352 0.563339 0.181353 0.478957 
33 1 -495.382 497.467 -2.06678 0.30947 0.660738 0.557989 0.39535 
34 1 -246.98 -498.699 2.48657 0.323935 0.626302 0.469609 0.5313 
38 1 -246.793 -250.086 3.93486 0.69826 0.553723 0.392858 0.226906 
40 1 249.526 -253.638 1.67685 0.592157 0.542746 0.0198053 0.595302 
43 1 0.59862 -0.617556 3.18967 0.275863 0.231195 0.872169 0.331316 
41 1 498.409 -0.501996 1.38433 0.854051 0.257071 0.29019 0.346846 
44 1 245.752 -1.35461 3.99688 -0.00450413 0.0438417 0.995602 0.0826674 
46 1 -250.851 251.445 1.96784 0.399841 0.174728 0.704156 0.560144 
47 1 3.12682 245.465 3.60878 0.124712 0.328481 0.334181 0.874569 
45 1 497.484 252.298 3.61816 0.36619 0.890336 0.0539334 0.265138 
35 1 -1.7425 499.058 1.54685 0.580452 0.605503 0.380558 0.389381 
36 1 249.044 498.1 2.38802 0.107694 0.560284 0.785879 0.238491 
50 1 -244.842 -497.857 256.318 0.711522 0.442344 0.528503 0.136941 
49 1 498.494 -498.758 249.891 0.0396557 0.803514 0.0331856 0.593035 
2 1 -251.989 -493.003 499.295 0.0468004 0.237875 0.684123 0.687896 
1 1 498.539 -498.893 499.538 0.386065 0.636919 0.667249 0.0081374 
7 1 3.86601 -254.878 497.114 0.568955 0.710224 0.187441 0.36978 
8 1 247.162 -249.33 491.455 0.0198404 0.476776 0.77083 0.422033 
11 1 1.10879 0.351532 493.435 0.0393911 0.0547141 0.865883 0.495683 
9 1 499.364 0.884875 -498.897 0.250861 0.67666 0.302206 0.622793 
13 1 -497.495 252.871 493.216 0.327245 0.461983 0.651787 0.504635 
14 1 -246.722 255.815 498.924 0.384083 0.0903424 0.88683 0.240523 
15 1 0.428809 249.983 496.008 0.22256 0.0990218 0.355921 0.90221 
16 1 245.936 248.221 498.322 0.247478 0.37595 0.394967 0.800885 
ITEM: TIMESTEP
20000
ITEM: NUMBER OF ATOMS
50
ITEM: BOX BOUNDS pp pp pp
-5.0000000000000000e+02 5.0000000000000000e+02
-5.0000000000000000e+02 5.0000000000000000e+02
-5.0000000000000000e+02 5.0000000000000000e+02
ITEM: ATOMS id type x y z c_q[1] c_q[2] c_q[3] c_q[4] 
2 1 -251.823 -490.959 -496.805 0.0680177 0.267021 0.650352 0.707895 
1 1 498.805 -493.722 -499.7 0.365814 0.631285 0.682492 0.043167 
5 1 -496.61 -247.435 -495.539 0.631409 0.726013 0.0709943 0.263037 
6 1 -255.299 -256.482 -497.416 0.725532 0.159597 0.448728 0.496764 
9 1 499.359 -1.40669 -494.699 0.289508 0.681715 0.257782 0.620482 
12 1 250.046 5.29765 -497.136 0.73361 0.675274 0.0733393 -0.0210273 
14 1 -256.846 253.141 -498.233 0.433494 0.0952803 0.872836 0.202884 
3 1 -2.90204 498.652 -490.405 0.302816 0.892506 0.298014 0.151405 
4 1 248.188 496.707 -497.387 0.390956 0.585054 0.632404 0.323928 
19 1 -0.402043 -499.484 -250.956 0.170166 0.542577 0.603503 0.558961 
20 1 254.392 -496.965 -249.404 0.0711594 0.204498 0.601247 0.769167 
17 1 -499.002 -497.832 -258.56 0.0976252 0.826493 0.0993191 0.545449 
22 1 -254.382 -254.549 -250.801 0.535246 0.562201 0.294565 0.557381 
23 1 3.20772 -246.329 -254.521 0.0223378 0.758763 0.200588 0.61931 
24 1 249.923 -253.647 -249.008 0.442607 0.467599 0.559502 0.521927 
21 1 498.413 -248.36 -248.371 0.290122 0.274549 0.817625 0.414658 
28 1 242.544 -1.68405 -247.754 0.445595 0.0796079 0.882045 0.130784 
25 1 -500.007 2.91602 -245.739 0.123783 0.477385 0.603553 0.626502 
26 1 -249.741 -0.57198 -253.398 0.823811 0.496591 0.128893 0.24108 
27 1 -6.20974 4.81505 -252.057 0.322671 0.552815 0.564945 0.520688 
29 1 -498.775 259.865 -243.445 0.235956 0.599154 0.375581 0.666541 
30 1 -244.771 248.666 -249.185 0.0317747 0.83457 0.536902 0.119241 
31 1 3.78188 247.325 -254.703 0.865931 0.424156 0.0193753 0.264347 
32 1 250.35 250.609 -249.478 0.700094 0.440861 0.175382 0.533621 
18 1 -255.65 498.116 -245.863 0.0683741 0.615638 0.686679 0.380508 
40 1 250.286 -252.944 -2.32577 0.601821 0.529845 0.009051 0.59749 
37 1 496.545 -255.295 -2.32119 0.150681 0.243004 0.594334 0.751672 
41 1 -496.888 0.238778 -4.38127 0.856101 0.256868 0.274284 0.354792 
42 1 -252.964 2.63528 -0.978841 0.562312 0.737252 0.00930187 0.374404 
48 1 248.142 255.402 -6.3687 0.62455 0.585588 0.200784 0.47614 
33 1 -491.492 -499.669 -3.2195 0.338778 0.68558 0.488365 0.420368 
34 1 -248.715 -497.019 7.89528 0.37125 0.590598 0.477468 0.534221 
36 1 247.546 -496.114 2.63259 0.0734757 0.551274 0.796739 0.236442 
38 1 -245.579 -250.842 1.87829 0.721373 0.577087 0.312727 0.220893 
39 1 -5.14587 -244.282 4.56874 0.630197 0.604055 0.381044 0.30459 
43 1 1.62175 -1.54437 2.72692 0.320763 0.196555 0.862519 0.338435 
44 1 238.835 -5.11338 5.21041 -0.058377 0.0157995 0.991617 0.114181 
46 1 -250.09 249.624 -0.0599731 0.409569 0.161703 0.705974 0.554712 
47 1 -4.50457 242.721 1.66905 0.164626 0.297052 0.356984 0.870184 
45 1 499.423 247.626 2.89944 0.389407 0.88856 0.0321502 0.240395 
35 1 -5.16586 499.937 3.91394 0.58883 0.61783 0.37327 0.363642 
50 1 -246.552 -497.652 256.869 0.708022 0.413382 0.546374 0.171157 
49 1 494.123 494.305 247.45 -0.016475 0.79853 0.0372954 0.600572 
7 1 4.5105 -252.512 494.654 0.599371 0.707649 0.163044 0.336754 
8 1 248.852 -249.353 487.798 0.0154331 0.468754 0.78952 0.395842 
10 1 -252.647 3.9 499.609 0.69111 0.451675 0.517447 0.224955 
11 1 -3.48009 3.2584 492.691 0.021695 0.0595118 0.852702 0.518543 
13 1 -498.444 257.106 489.252 0.321363 0.480698 0.617873 0.532811 
15 1 -3.57804 251.645 492.9 0.253741 0.148051 0.331402 0.896588 
16 1 246.76 247.05 497.494 0.234305 0.374819 0.462903 0.768331 
ITEM: TIMESTEP
30000
ITEM: NUMBER OF ATOMS
50
ITEM: BOX BOUNDS pp pp pp
-5.0000000000000000e+02 5.0000000000000000e+02
-5.0000000000000000e+02 5.0000000000000000e+02
-5.0000000000000000e+02 5.0000000000000000e+02
ITEM: ATOMS id type x y z c_q[1] c_q[2] c_q[3] c_q[4] 
2 1 -253.445 -490.205 -497.365 0.118749 0.248732 0.652156 0.706204 
5 1 -497.905 -251.277 -498.699 0.638075 0.719755 0.0465794 0.269526 
6 1 -251.259 -254.445 -493.978 0.732718 0.150918 0.454546 0.483462 
9 1 497.04 -0.321499 -490.394 0.321031 0.678455 0.268539 0.603759 
10 1 -255.046 8.83247 -499.142 0.71094 0.403847 0.536319 0.209366 
12 1 249.782 12.1071 -495.864 0.762692 0.643304 0.0653634 -0.0136971 
14 1 -246.666 247.861 -497.391 0.465873 0.0671089 0.866783 0.16476 
3 1 -9.74487 494.273 -495.945 0.319309 0.886231 0.300777 0.148894 
4 1 245.871 492.297 -491.916 0.355947 0.567304 0.682951 0.291627 
19 1 -0.447117 -493.079 -252.631 0.163023 0.535439 0.601905 0.569596 
20 1 252.695 -495.536 -248.014 0.0778193 0.166932 0.633743 0.751298 
17 1 498.74 -494.488 -255.766 0.0483261 0.808016 0.105708 0.577582 
22 1 -255.848 -250.953 -249.761 0.546156 0.603222 0.277131 0.510915 
23 1 5.51462 -246.88 -254.741 0.0827245 0.771227 0.228532 0.588335 
24 1 247.067 -251.891 -249.768 0.432168 0.485217 0.580141 0.491154 
21 1 495.058 -248.119 -251.297 0.31425 0.270944 0.809801 0.4148 
28 1 239.793 -4.3219 -248.209 0.447118 0.094493 0.883733 0.100864 
25 1 -498.397 1.27401 -245.755 0.0771445 0.441587 0.643609 0.620337 
26 1 -249.814 -0.40923 -252.614 0.816595 0.494295 0.170802 0.244278 
27 1 -6.56592 8.12907 -246.294 0.32842 0.566478 0.55028 0.518107 
29 1 -499.066 263.418 -245.793 0.276384 0.60884 0.368605 0.645798 
30 1 -244.76 248.912 -256.004 -0.0786336 0.819297 0.552427 0.131886 
31 1 -2.37016 249.996 -256.072 0.843874 0.472576 0.065682 0.245427 
32 1 254.146 248.346 -247.331 0.675797 0.457685 0.172524 0.551415 
18 1 -256.335 497.647 -243.623 0.0338055 0.626641 0.685335 0.369452 
36 1 245.987 -492.85 1.14177 -0.00898426 0.546699 0.810719 0.209221 
40 1 252.781 -254.448 -5.84565 0.584873 0.547046 -0.0146729 0.598706 
37 1 497.687 -256.092 -0.915045 0.0960864 0.213919 0.581847 0.778756 
42 1 -254.951 2.76328 -0.720017 0.528916 0.740451 0.0258899 0.413897 
48 1 249.756 254.372 -6.56461 0.611461 0.592088 0.228576 0.472546 
33 1 -490.509 497.416 -1.01775 0.331834 0.711259 0.465775 0.408718 
34 1 -246.313 -499.282 8.97104 0.362324 0.57351 0.459813 0.573044 
38 1 -246.139 -249.285 3.60554 0.728386 0.569155 0.317015 0.212174 
39 1 -4.0681 -246.616 4.40389 0.618013 0.558841 0.440015 0.334878 
41 1 -498.44 2.86664 0.209126 0.873394 0.245883 0.228957 0.352566 
43 1 6.08084 3.89046 6.90894 0.302025 0.185356 0.880994 0.313486 
44 1 240.497 2.12021 7.6871 -0.0428111 -0.00582376 0.992394 0.115272 
45 1 -493.372 248.997 1.18168 0.356343 0.884551 -0.00295966 0.300966 
46 1 -250.398 251.09 0.359575 0.375819 0.194296 0.703701 0.570801 
47 1 -0.181095 245.628 1.81911 0.182101 0.267617 0.332928 0.885652 
35 1 -1.45347 496.73 5.24192 0.588599 0.623211 0.388701 0.337744 
50 1 -247.263 -497.163 259 0.707338 0.410969 0.548121 0.174186 
49 1 496.45 498.459 247.356 0.00203126 0.783454 0.0744495 0.616971 
1 1 498.789 -493.402 497.691 0.378429 0.645014 0.661293 0.0586564 
7 1 5.49966 -253.185 492.51 0.595988 0.69532 0.190717 0.353491 
8 1 255.589 -246.436 487.914 0.0100479 0.472584 0.78789 0.394706 
11 1 -3.95724 0.323696 493.031 0.0285084 0.0418422 0.854605 0.516805 
15 1 -5.2545 251.461 495.7 0.296309 0.169963 0.343278 0.874914 
16 1 246.592 254.567 492.295 0.244327 0.349923 0.468188 0.77373 
13 1 497.093 254.46 492.063 0.315561 0.473153 0.613501 0.547872 
ITEM: TIMESTEP
40000
ITEM: NUMBER OF ATOMS
50
ITEM: BOX BOUNDS pp pp pp
-5.0000000000000000e+02 5.0000000000000000e+02
-5.0000000000000000e+02 5.0000000000000000e+02
-5.0000000000000000e+02 5.0000000000000000e+02
ITEM: ATOMS id type x y z c_q[1] c_q[2] c_q[3] c_q[4] 
2 1 -252.993 -483.781 499.245 0.122044 0.221276 0.674207 0.693965 
5 1 -491.903 -251.094 -497.936 0.627216 0.724552 0.0720376 0.276468 
6 1 -252.256 -253.674 -489.794 0.728688 0.164308 0.431027 0.506195 
9 1 494.638 -1.1083 -486.881 0.346245 0.65175 0.229826 0.634442 
10 1 -253.566 6.66951 -496.804 0.683003 0.419452 0.549434 0.235987 
12 1 250.917 13.3143 -495.338 0.781304 0.612545 0.0897915 -0.0793123 
14 1 -243.212 251.683 -494.221 0.470658 0.0903999 0.860967 0.170425 
3 1 -7.48262 488.724 -495.794 0.317438 0.886656 0.298536 0.154762 
4 1 245.506 494.515 -488.561 0.334118 0.568996 0.700007 0.273128 
18 1 -259.122 -499.202 -240.906 0.0369704 0.584104 0.721102 0.370767 
19 1 1.27712 -492.985 -250.859 0.149564 0.542359 0.623009 0.543449 
20 1 258.867 -495.399 -247.606 0.0488186 0.157638 0.609088 0.775744 
17 1 496.705 -497.162 -263.475 0.084167 0.821483 0.0998996 0.555069 
22 1 -257.585 -253.982 -251.346 0.544328 0.602942 0.284507 0.50914 
23 1 10.7035 -248.825 -251.121 0.0707654 0.752932 0.227335 0.613518 
24 1 247.611 -253.196 -249.149 0.438928 0.458922 0.609876 0.474113 
21 1 494.739 -249.582 -248.788 0.322312 0.302628 0.803766 0.39811 
28 1 238.463 -10.0235 -251.597 0.431 0.114278 0.892946 0.0618623 
25 1 -496.152 0.949237 -248.191 0.050361 0.439722 0.637333 0.630806 
26 1 -248.026 -0.446123 -248.67 0.797092 0.493149 0.184492 0.295655 
27 1 -5.79926 4.76337 -249.303 0.340936 0.581796 0.518527 0.525744 
29 1 -494.423 263.446 -250.121 0.24503 0.607114 0.401743 0.640294 
30 1 -244.777 247.239 -254.568 -0.0833359 0.811955 0.570177 0.0931801 
31 1 0.664329 250.203 -260.291 0.844808 0.472225 0.0567789 0.245111 
32 1 249.912 242.899 -248.115 0.658564 0.490543 0.186702 0.539262 
36 1 249.826 -491.231 -0.176594 -0.050788 0.531034 0.825757 0.183164 
40 1 257.982 -250.92 -3.24403 0.593642 0.543674 -0.0333279 0.592366 
45 1 -492.969 247.227 -0.546241 0.360829 0.882406 0.038859 0.299419 
46 1 -250.866 257.132 -1.03254 0.370139 0.202261 0.726408 0.542604 
48 1 249.738 253.757 -2.9854 0.623788 0.619311 0.246933 0.407881 
33 1 -495.395 493.157 -2.40084 0.288772 0.72168 0.441388 0.448292 
34 1 -245.905 -498.796 9.99619 0.353729 0.556944 0.432999 0.614168 
37 1 499.682 -254.386 2.58048 0.0459059 0.241775 0.553568 0.795613 
38 1 -247.649 -245.585 0.0528675 0.731636 0.545947 0.333187 0.235876 
39 1 -8.91998 -245.325 4.05625 0.606679 0.560224 0.462113 0.323329 
43 1 6.32907 -2.30821 0.687641 0.259067 0.16993 0.910783 0.272913 
44 1 239.706 -0.148257 8.2018 0.00890996 -0.0652857 0.986759 0.148207 
41 1 499.149 7.65478 6.06578 0.88249 0.227522 0.193204 0.36348 
42 1 -256.3 4.44328 2.94697 0.580899 0.73097 0.0304371 0.356809 
47 1 -1.26903 250.653 1.12751 0.164179 0.296174 0.326897 0.882306 
35 1 -7.42629 499.037 6.16961 0.568655 0.631206 0.415954 0.324335 
50 1 -250.263 -494.575 256.712 0.692662 0.420948 0.557258 0.180237 
49 1 495.837 -497.421 247.827 0.00463499 0.775678 0.03984 0.629853 
1 1 497.086 -496.998 494.466 0.369191 0.675748 0.636214 0.047895 
7 1 7.01908 -253.205 491.576 0.652159 0.658938 0.178153 0.329774 
8 1 253.086 -248.911 488.213 -0.032473 0.445207 0.79446 0.411789 
11 1 -4.63669 6.17555 492.933 0.0289611 0.0739789 0.85448 0.513373 
15 1 -3.87228 253.365 494.189 0.250711 0.146629 0.357915 0.887435 
16 1 249.657 250.258 498.842 0.225807 0.381572 0.519179 0.730662 
13 1 497.834 246.17 489.768 0.331652 0.458454 0.628143 0.5341 
ITEM: TIMESTEP
50000
ITEM: NUMBER OF ATOMS
50
ITEM: BOX BOUNDS pp pp pp
-5.0000000000000000e+02 5.0000000000000000e+02
-5.0000000000000000e+02 5.0000000000000000e+02
-5.0000000000000000e+02 5.0000000000000000e+02
ITEM: ATOMS id type x y z c_q[1] c_q[2] c_q[3] c_q[4] 
5 1 -493.22 -249.614 -495.274 0.600893 0.745405 0.0782522 0.277803 
6 1 -252.714 -250.112 -490.087 0.756095 0.174734 0.410702 0.478657 
10 1 -253.546 8.73894 -496.541 0.667658 0.47058 0.543349 0.193803 
9 1 496.496 6.80294 -490.452 0.378189 0.651716 0.207713 0.623775 
14 1 -239.139 252.418 -494.202 0.397569 0.11571 0.893527 0.173663 
16 1 255.88 249.414 -498.627 0.244877 0.386731 0.518975 0.7219 
3 1 -11.4668 495.492 -495.493 0.344023 0.888962 0.260267 0.153803 
4 1 249.554 495.246 -483.181 0.330965 0.557865 0.71118 0.271056 
17 1 -499.018 -497.117 -268.274 0.0572257 0.806842 0.112231 0.577178 
18 1 -258.811 -499.302 -242.625 0.0739149 0.552366 0.754439 0.34677 
19 1 -2.42262 -486.354 -252.522 0.184544 0.506554 0.632382 0.556273 
20 1 258.471 -496.054 -248.29 0.0444133 0.192413 0.612257 0.765602 
22 1 -254.465 -257.339 -251.066 0.542319 0.606412 0.359149 0.457348 
23 1 14.6666 -248.213 -255.13 0.0549303 0.776684 0.244473 0.577907 
24 1 243.947 -250.38 -255.597 0.490702 0.446565 0.603926 0.441661 
21 1 497.519 -247.477 -243.758 0.354558 0.282656 0.796872 0.399235 
26 1 -247.688 -1.86885 -255.367 0.820215 0.452905 0.174395 0.302839 
28 1 238.579 -7.59943 -256.743 0.44191 0.127334 0.887739 0.0205142 
25 1 -493.946 8.22521 -244.24 0.0526357 0.481693 0.617788 0.619305 
27 1 -6.5217 2.89189 -250.982 0.343181 0.595517 0.521062 0.506044 
29 1 -498.26 262.344 -243.227 0.22449 0.578566 0.437512 0.65073 
30 1 -242.715 249.924 -254.992 -0.10267 0.809645 0.567637 0.108266 
31 1 -0.529247 244.866 -262.808 0.844731 0.46307 0.0580258 0.26197 
32 1 248.397 239.321 -249.009 0.641097 0.487813 0.150366 0.573083 
38 1 -247.247 -239.992 -2.49424 0.755186 0.519529 0.338237 0.213024 
40 1 261.522 -248.917 -5.60033 0.576974 0.549979 -0.0550848 0.601324 
45 1 -496.056 248.734 -2.91826 0.336003 0.886042 0.06219 0.313312 
48 1 252.449 254.097 -4.6178 0.635002 0.611175 0.197052 0.429429 
33 1 -494.24 489.945 -1.80665 0.323196 0.731622 0.422994 0.425852 
34 1 -244.732 -499.512 14.1674 0.390194 0.563733 0.419061 0.595266 
36 1 250.636 -493.128 0.975517 -0.077044 0.538436 0.824762 0.154658 
39 1 -9.94082 -246.158 1.47725 0.655711 0.55129 0.414942 0.306504 
37 1 498.457 -249.88 2.0488 0.0435825 0.255811 0.516973 0.815721 
43 1 4.6084 -0.191254 1.70763 0.200007 0.132103 0.936166 0.257175 
44 1 241.342 -0.437703 8.17627 0.00398443 -0.0814659 0.989301 0.120962 
41 1 -494.631 5.88672 13.2885 0.880339 0.23596 0.192587 0.363644 
42 1 -253.939 7.37625 8.01419 0.596419 0.749772 0.0363964 0.284257 
46 1 -247.987 255.097 1.29656 0.333002 0.229616 0.764955 0.501229 
47 1 5.33164 250.266 4.19417 0.180652 0.221701 0.358682 0.888572 
35 1 -6.77363 496.142 3.48937 0.575417 0.644565 0.388408 0.320267 
49 1 -498.406 -495.976 245.561 -0.0344829 0.785552 0.0167112 0.617608 
50 1 -249.006 -491.846 250.677 0.693051 0.409195 0.56401 0.184747 
2 1 -251.429 -488.469 495.442 0.111774 0.283616 0.658107 0.68845 
1 1 499.035 -497.991 493.776 0.344143 0.678681 0.646435 0.0554913 
7 1 -0.858469 -253.094 491.477 0.600125 0.696151 0.18602 0.347304 
8 1 256.133 -247.468 491.153 -0.0141944 0.434971 0.811573 0.389806 
11 1 -4.54614 5.53747 493.092 0.0136422 0.0658697 0.839106 0.539793 
12 1 251.339 14.9416 498.601 0.77646 0.616367 0.0746777 -0.107818 
15 1 -3.52955 254.205 486.973 0.214244 0.163127 0.354107 0.895599 
13 1 497.068 245.372 491.895 0.300067 0.492132 0.616602 0.536254 
ITEM: TIMESTEP
60000
ITEM: NUMBER OF ATOMS
50
ITEM: BOX BOUNDS pp pp pp
-5.0000000000000000e+02 5.0000000000000000e+02
-5.0000000000000000e+02 5.0000000000000000e+02
-5.0000000000000000e+02 5.0000000000000000e+02
ITEM: ATOMS id type x y z c_q[1] c_q[2] c_q[3] c_q[4] 
5 1 -493.161 -258.957 -497.329 0.607616 0.7412 0.0494611 0.281031 
6 1 -250.586 -245.192 -483.242 0.726955 0.14676 0.464845 0.48365 
12 1 250.194 14.7461 -495.371 0.779639 0.611626 0.0953347 -0.0948081 
9 1 492.317 1.57801 -487.026 0.352013 0.652915 0.212215 0.636202 
14 1 -235.709 252.565 -493.349 0.388522 0.0981297 0.89922 0.175571 
16 1 252.092 247.975 -494.795 0.250492 0.368153 0.537984 0.715744 
3 1 -6.4375 494.575 -496.304 0.365338 0.886119 0.235099 0.161397 
4 1 248.562 492.947 -479.463 0.335429 0.501446 0.736276 0.306492 
18 1 -258.646 -496.737 -247.112 0.0186105 0.572972 0.751483 0.326544 
19 1 -6.85972 -486.649 -250.224 0.17683 0.490293 0.646037 0.557656 
20 1 254.237 -499.313 -248.972 0.0351845 0.154007 0.581456 0.798093 
17 1 496.369 -492.063 -268.548 0.0831166 0.818725 0.0622974 0.564712 
22 1 -255.336 -263.35 -251.332 0.516402 0.613716 0.354457 0.480668 
23 1 13.5923 -245.918 -254.016 0.0788469 0.768633 0.201877 0.601857 
24 1 239.163 -248.384 -253.916 0.50593 0.447305 0.593386 0.438002 
21 1 496.046 -245.106 -242.06 0.338238 0.298497 0.778994 0.435502 
26 1 -250.14 -2.82092 -254.043 0.840122 0.44596 0.124261 0.282618 
28 1 237.952 -2.44086 -254.008 0.469718 0.132948 0.869155 0.0791123 
25 1 -493.998 13.4057 -245.274 0.0711331 0.498111 0.60878 0.613362 
27 1 -11.0835 8.2214 -252.378 0.316902 0.65289 0.489373 0.483552 
29 1 -494.298 260.11 -241.231 0.242197 0.57324 0.459706 0.633567 
30 1 -246.828 248.988 -252.67 -0.0738775 0.79503 0.597067 0.0773324 
31 1 -0.680349 251.736 -259.51 0.848217 0.449222 -0.00848669 0.280456 
32 1 251.586 236.866 -249.589 0.63939 0.492163 0.124882 0.577374 
40 1 258.563 -249.424 -3.67994 0.589981 0.576671 -0.0622528 0.561692 
45 1 -498.529 246.067 -0.797389 0.34065 0.853366 0.0482939 0.391652 
46 1 -247.917 256.552 0.0107043 0.349295 0.246044 0.768275 0.476665 
48 1 252.242 262.929 -8.15136 0.644712 0.599912 0.22401 0.417458 
33 1 -495.434 492.236 -0.0496533 0.368368 0.717806 0.432866 0.402102 
34 1 -244.402 -495.487 8.44029 0.40632 0.561426 0.418433 0.587042 
36 1 251.516 -493.509 0.338275 -0.117238 0.497093 0.838594 0.18951 
37 1 -499.553 -255.387 1.7942 0.00179863 0.294943 0.52906 0.795676 
38 1 -244.357 -240.608 3.10788 0.75777 0.507729 0.339787 0.229217 
39 1 -11.7748 -245.632 6.33705 0.655778 0.530593 0.434156 0.316126 
43 1 4.75773 0.153107 7.66136 0.185313 0.0874351 0.954308 0.217509 
44 1 243.974 -3.21304 10.0061 -0.0376997 -0.0676132 0.989688 0.120522 
41 1 -494.015 7.06478 15.1919 0.853313 0.2392 0.215119 0.410322 
42 1 -252.889 3.17269 7.75986 0.593005 0.75377 0.0167055 0.28266 
47 1 13.1358 248.783 6.64317 0.230998 0.173765 0.394733 0.872142 
35 1 -8.50633 488.49 1.17398 0.551483 0.673682 0.375895 0.317368 
50 1 -250.404 -492.284 244.721 0.696 0.403538 0.540837 0.245429 
49 1 497.779 -489.563 240.894 -0.0561307 0.804516 0.0337034 0.590312 
1 1 -499.032 -496.289 496.491 0.304267 0.70079 0.642669 0.0573699 
2 1 -252.946 -489.132 496.691 0.122915 0.301426 0.664281 0.672878 
7 1 1.44096 -252.45 490.134 0.606348 0.714857 0.15808 0.310376 
8 1 259.279 -249.978 490.303 -0.0371138 0.441571 0.800872 0.402792 
10 1 -250.428 9.99778 498.827 0.680508 0.454261 0.54249 0.19042 
11 1 -1.26703 2.90336 491.213 -0.0207773 0.0735681 0.835396 0.544306 
15 1 2.8548 252.974 485.534 0.191413 0.125069 0.353804 0.906941 
13 1 497.209 244.787 492.144 0.264688 0.504766 0.603342 0.55779 
ITEM: TIMESTEP
70000
ITEM: NUMBER OF ATOMS
50
ITEM: BOX BOUNDS pp pp pp
-5.0000000000000000e+02 5.0000000000000000e+02
-5.0000000000000000e+02 5.0000000000000000e+02
-5.0000000000000000e+02 5.0000000000000000e+02
ITEM: ATOMS id type x y z c_q[1] c_q[2] c_q[3] c_q[4] 
5 1 -488.571 -260.075 -497.751 0.587465 0.753894 0.0405621 0.291349 
6 1 -254.051 -240.199 -480.692 0.699602 0.155953 0.498722 0.487353 
9 1 491.748 -0.421555 -491.376 0.3224 0.661712 0.246866 0.63028 
12 1 254.203 13.306 -498.124 0.793436 0.605254 0.0488548 -0.041709 
14 1 -235.11 254.584 -495.348 0.363399 0.151228 0.898909 0.192442 
16 1 250.547 249.343 -491.901 0.281874 0.368839 0.544432 0.698641 
3 1 -5.81071 497.144 -490.763 0.371275 0.886253 0.186344 0.204905 
4 1 245.146 491.387 -486.033 0.360439 0.493163 0.73345 0.298203 
18 1 -258.356 -498.681 -247.005 0.0586796 0.590391 0.74702 0.299928 
19 1 -10.7472 -482.065 -248.391 0.210983 0.505006 0.615442 0.567174 
20 1 252.922 -499.072 -242.07 0.0740882 0.204941 0.592023 0.775899 
17 1 496.205 -487.603 -271.3 0.0554252 0.820395 0.124324 0.555358 
22 1 -252.726 -260.273 -247.614 0.56982 0.576513 0.377991 0.447283 
23 1 10.2091 -244.663 -248.569 0.0775155 0.771929 0.211946 0.594302 
24 1 239.239 -248.24 -251.986 0.505229 0.41527 0.606545 0.452103 
21 1 496.024 -242.103 -244.164 0.386181 0.287831 0.765476 0.42669 
28 1 241.765 -1.96103 -251.486 0.450481 0.121183 0.880401 0.085293 
25 1 -488.822 12.7167 -246.054 0.0363425 0.540308 0.619374 0.568439 
26 1 -248.667 3.22519 -254.319 0.830348 0.444293 0.137523 0.306942 
27 1 -6.63135 4.74003 -253.348 0.292717 0.661757 0.514483 0.460111 
29 1 -495.336 258.653 -245.111 0.166115 0.537007 0.468762 0.68139 
30 1 -243.676 245.823 -256.879 -0.128129 0.779925 0.610019 0.056361 
31 1 -0.339606 249.944 -256.564 0.855988 0.380423 -0.00379501 0.350069 
32 1 246.507 241.233 -249.532 0.599855 0.49632 0.142744 0.611117 
38 1 -248.391 -239.848 -2.51785 0.796142 0.485756 0.279829 0.227804 
40 1 261.222 -252.824 -6.74399 0.601238 0.58552 -0.0513565 0.541333 
37 1 499.058 -258.968 -0.832548 0.0173655 0.322186 0.55218 0.76876 
46 1 -248.937 257.766 -1.38471 0.391746 0.243887 0.743009 0.484759 
48 1 253.866 258.488 -6.49061 0.64636 0.597316 0.222705 0.419326 
35 1 -7.64293 487.964 -1.51069 0.56742 0.667696 0.365836 0.313659 
34 1 -242.431 499.199 13.4461 0.414499 0.554335 0.426003 0.582602 
36 1 254.011 -489.063 2.31764 -0.0982621 0.50504 0.829246 0.218242 
39 1 -9.72739 -249.236 6.55566 0.671899 0.558593 0.379428 0.304235 
44 1 241.678 -7.798 10.2034 -0.0127684 -0.0800087 0.992536 0.0911458 
41 1 -493.115 4.71651 14.7576 0.856877 0.216667 0.222267 0.411601 
42 1 -253.829 4.5053 5.84558 0.623509 0.731731 0.0161448 0.274857 
43 1 6.56589 5.37185 13.6287 0.16858 0.081685 0.956981 0.221576 
45 1 -498.253 245.919 2.70317 0.352583 0.85015 -0.00699297 0.391001 
47 1 18.9559 249.992 9.94754 0.200706 0.196407 0.381888 0.880513 
33 1 -497.722 491.48 -0.668863 0.337906 0.726822 0.411851 0.433506 
50 1 -248.834 -489.667 241.444 0.672333 0.433963 0.532471 0.275896 
49 1 496.644 -493.918 239.736 -0.00103032 0.805407 0.0321042 0.591852 
2 1 -252.847 -484.903 498.811 0.0483695 0.332184 0.674953 0.657079 
1 1 496.16 -496.499 498.806 0.357306 0.708128 0.604353 0.0751251 
7 1 5.49428 -249.144 486.803 0.609431 0.720051 0.155406 0.293206 
8 1 261.706 -252.022 492.251 -0.0853974 0.407285 0.810275 0.412651 
10 1 -247.469 10.4739 496.973 0.675034 0.433015 0.573831 0.165965 
11 1 3.43718 4.22563 487.262 0.00352045 0.0982206 0.818691 0.565761 
13 1 -497.624 247.247 495.417 0.254047 0.529813 0.600027 0.542887 
15 1 3.14905 252.775 484.387 0.201102 0.132578 0.308601 0.920188 
ITEM: TIMESTEP
80000
ITEM: NUMBER OF ATOMS
50
ITEM: BOX BOUNDS pp pp pp
-5.0000000000000000e+02 5.0000000000000000e+02
-5.0000000000000000e+02 5.0000000000000000e+02
-5.0000000000000000e+02 5.0000000000000000e+02
ITEM: ATOMS id type x y z c_q[1] c_q[2] c_q[3] c_q[4] 
2 1 -255.156 -485.809 -500.023 -0.00167373 0.301287 0.68518 0.663137 
5 1 -489.426 -261.809 -497.331 0.603183 0.72845 0.0566589 0.319876 
6 1 -253.141 -243.825 -481.911 0.714183 0.192544 0.469717 0.481908 
9 1 493.628 -2.8159 -496.872 0.326854 0.690197 0.23707 0.600494 
12 1 257.002 16.5348 499.179 0.781165 0.621849 0.00549454 -0.0552664 
13 1 -495.765 244.464 -499.625 0.226871 0.580996 0.584982 0.51843 
14 1 -232.233 254.878 -490.696 0.417858 0.195368 0.87194 0.164155 
16 1 253.65 249.754 -489.364 0.273811 0.352785 0.577591 0.683344 
3 1 -9.04681 493.148 -491.724 0.409447 0.874432 0.176923 0.19084 
4 1 241.505 488.819 -480.871 0.373442 0.506201 0.732847 0.259301 
19 1 -8.82328 -483.883 -249.315 0.256801 0.528426 0.605401 0.536944 
17 1 494.474 -489.306 -264.596 0.0817547 0.819888 0.170989 0.540244 
22 1 -247.268 -259.163 -252.459 0.6035 0.579655 0.331904 0.435462 
23 1 13.8968 -244.61 -249.321 0.0682739 0.768122 0.255679 0.583057 
24 1 240.693 -249.512 -249.456 0.476183 0.433636 0.618135 0.450688 
21 1 -499.474 -242.842 -246.536 0.409517 0.321601 0.721527 0.456364 
25 1 -486.277 14.7986 -245.832 -0.0398328 0.517193 0.664931 0.537394 
26 1 -252.312 3.55435 -254.69 0.819007 0.436978 0.165298 0.333098 
27 1 -11.2898 0.140128 -250.179 0.318404 0.626523 0.520187 0.485277 