ITEM: TIMESTEP
0
ITEM: NUMBER OF ATOMS
25
ITEM: BOX BOUNDS
-500.000000 500.000000
-500.000000 500.000000
-500.000000 500.000000
ITEM: ATOMS id type x y z c_q[1] c_q[2] c_q[3] c_q[4]
1 1 -500.000000 -500.000000 -500.000000 0.270563 0.001439 0.669063 0.692205
2 1 -166.666667 -500.000000 -500.000000 0.854514 0.150505 0.463475 0.179847
3 1 166.666667 -500.000000 -500.000000 0.863491 0.221804 0.452975 0.000521
4 1 -500.000000 -166.666667 -500.000000 0.281180 0.451414 0.534288 0.657038
5 1 -166.666667 -166.666667 -500.000000 0.527443 0.514749 0.375106 0.562257
6 1 166.666667 -166.666667 -500.000000 0.176533 0.489913 0.459517 0.719490
7 1 -500.000000 166.666667 -500.000000 0.058651 0.246605 0.904813 0.342140
8 1 -166.666667 166.666667 -500.000000 0.657987 0.709485 0.198722 0.155541
9 1 166.666667 166.666667 -500.000000 0.057535 0.587465 0.613505 0.524582
10 1 -500.000000 -500.000000 -166.666667 0.348090 0.548528 0.744336 0.154643
11 1 -166.666667 -500.000000 -166.666667 0.731458 0.517401 0.444043 0.009597
12 1 166.666667 -500.000000 -166.666667 0.446949 0.564856 0.693457 0.017082
13 1 -500.000000 -166.666667 -166.666667 0.154969 0.087151 0.916141 0.359270
14 1 -166.666667 -166.666667 -166.666667 0.034598 0.684876 0.363258 0.630707
15 1 166.666667 -166.666667 -166.666667 0.791154 0.369323 0.148203 0.464447
16 1 -500.000000 166.666667 -166.666667 0.632179 0.335124 0.201024 0.669052
17 1 -166.666667 166.666667 -166.666667 0.043694 0.748660 0.423159 0.508463
18 1 166.666667 166.666667 -166.666667 0.196166 0.176879 0.746472 0.610747
19 1 -500.000000 -500.000000 166.666667 0.486766 0.313584 0.595443 0.556931
20 1 -166.666667 -500.000000 166.666667 0.673213 0.568717 0.358310 0.308155
21 1 166.666667 -500.000000 166.666667 0.854340 0.151188 0.493641 0.059704
22 1 -500.000000 -166.666667 166.666667 0.223490 0.538012 0.668456 0.462344
23 1 -166.666667 -166.666667 166.666667 0.433067 0.449912 0.060332 0.778712
24 1 166.666667 -166.666667 166.666667 0.489992 0.601767 0.533654 0.336153
25 1 -500.000000 166.666667 166.666667 0.646841 0.671446 0.361452 0.010464
