LAMMPS data file

60 atoms
60 ellipsoids
0 bonds
0 angles
0 dihedrals

1 atom types
0 bond types
0 angle types
0 dihedral types

-500.000000 500.000000 xlo xhi
-500.000000 500.000000 ylo yhi
-500.000000 500.000000 zlo zhi

Masses

1 203166.000000

Atoms

1 1 -500.000000 -500.000000 -500.000000 1 1.000000 3 0.000000
2 1 -250.000000 -500.000000 -500.000000 1 1.000000 4 0.000000
3 1 0.000000 -500.000000 -500.000000 1 1.000000 5 0.000000
4 1 250.000000 -500.000000 -500.000000 1 1.000000 6 0.000000
5 1 -500.000000 -250.000000 -500.000000 1 1.000000 7 0.000000
6 1 -250.000000 -250.000000 -500.000000 1 1.000000 8 0.000000
7 1 0.000000 -250.000000 -500.000000 1 1.000000 9 0.000000
8 1 250.000000 -250.000000 -500.000000 1 1.000000 10 0.000000
9 1 -500.000000 0.000000 -500.000000 1 1.000000 11 0.000000
10 1 -250.000000 0.000000 -500.000000 1 1.000000 12 0.000000
11 1 0.000000 0.000000 -500.000000 1 1.000000 13 0.000000
12 1 250.000000 0.000000 -500.000000 1 1.000000 14 0.000000
13 1 -500.000000 250.000000 -500.000000 1 1.000000 15 0.000000
14 1 -250.000000 250.000000 -500.000000 1 1.000000 16 0.000000
15 1 0.000000 250.000000 -500.000000 1 1.000000 17 0.000000
16 1 250.000000 250.000000 -500.000000 1 1.000000 18 0.000000
17 1 -500.000000 -500.000000 -250.000000 1 1.000000 19 0.000000
18 1 -250.000000 -500.000000 -250.000000 1 1.000000 20 0.000000
19 1 0.000000 -500.000000 -250.000000 1 1.000000 21 0.000000
20 1 250.000000 -500.000000 -250.000000 1 1.000000 22 0.000000
21 1 -500.000000 -250.000000 -250.000000 1 1.000000 23 0.000000
22 1 -250.000000 -250.000000 -250.000000 1 1.000000 24 0.000000
23 1 0.000000 -250.000000 -250.000000 1 1.000000 25 0.000000
24 1 250.000000 -250.000000 -250.000000 1 1.000000 26 0.000000
25 1 -500.000000 0.000000 -250.000000 1 1.000000 27 0.000000
26 1 -250.000000 0.000000 -250.000000 1 1.000000 28 0.000000
27 1 0.000000 0.000000 -250.000000 1 1.000000 29 0.000000
28 1 250.000000 0.000000 -250.000000 1 1.000000 30 0.000000
29 1 -500.000000 250.000000 -250.000000 1 1.000000 31 0.000000
30 1 -250.000000 250.000000 -250.000000 1 1.000000 32 0.000000
31 1 0.000000 250.000000 -250.000000 1 1.000000 33 0.000000
32 1 250.000000 250.000000 -250.000000 1 1.000000 34 0.000000
33 1 -500.000000 -500.000000 0.000000 1 1.000000 35 0.000000
34 1 -250.000000 -500.000000 0.000000 1 1.000000 36 0.000000
35 1 0.000000 -500.000000 0.000000 1 1.000000 37 0.000000
36 1 250.000000 -500.000000 0.000000 1 1.000000 38 0.000000
37 1 -500.000000 -250.000000 0.000000 1 1.000000 39 0.000000
38 1 -250.000000 -250.000000 0.000000 1 1.000000 40 0.000000
39 1 0.000000 -250.000000 0.000000 1 1.000000 41 0.000000
40 1 250.000000 -250.000000 0.000000 1 1.000000 42 0.000000
41 1 -500.000000 0.000000 0.000000 1 1.000000 43 0.000000
42 1 -250.000000 0.000000 0.000000 1 1.000000 44 0.000000
43 1 0.000000 0.000000 0.000000 1 1.000000 45 0.000000
44 1 250.000000 0.000000 0.000000 1 1.000000 46 0.000000
45 1 -500.000000 250.000000 0.000000 1 1.000000 47 0.000000
46 1 -250.000000 250.000000 0.000000 1 1.000000 48 0.000000
47 1 0.000000 250.000000 0.000000 1 1.000000 49 0.000000
48 1 250.000000 250.000000 0.000000 1 1.000000 50 0.000000
49 1 -500.000000 -500.000000 250.000000 1 1.000000 51 0.000000
50 1 -250.000000 -500.000000 250.000000 1 1.000000 52 0.000000
51 1 0.000000 -500.000000 250.000000 1 1.000000 53 0.000000
52 1 250.000000 -500.000000 250.000000 1 1.000000 54 0.000000
53 1 -500.000000 -250.000000 250.000000 1 1.000000 55 0.000000
54 1 -250.000000 -250.000000 250.000000 1 1.000000 56 0.000000
55 1 0.000000 -250.000000 250.000000 1 1.000000 57 0.000000
56 1 250.000000 -250.000000 250.000000 1 1.000000 58 0.000000
57 1 -500.000000 0.000000 250.000000 1 1.000000 59 0.000000
58 1 -250.000000 0.000000 250.000000 1 1.000000 60 0.000000
59 1 0.000000 0.000000 250.000000 1 1.000000 61 0.000000
60 1 250.000000 0.000000 250.000000 1 1.000000 62 0.000000

Ellipsoids

1 55.000000 110.000000 110.000000 0.170542 0.477426 0.201961 0.837969
2 55.000000 110.000000 110.000000 0.415534 0.711481 0.537517 0.179449
3 55.000000 110.000000 110.000000 0.685577 0.499793 0.336640 0.408490
4 55.000000 110.000000 110.000000 0.640994 0.165697 0.324842 0.675388
5 55.000000 110.000000 110.000000 0.610638 0.495994 0.089122 0.610875
6 55.000000 110.000000 110.000000 0.568033 0.586843 0.122744 0.563816
7 55.000000 110.000000 110.000000 0.326605 0.182421 0.874419 0.308939
8 55.000000 110.000000 110.000000 0.726734 0.597941 0.184462 0.283369
9 55.000000 110.000000 110.000000 0.408782 0.405792 0.814672 0.067381
10 55.000000 110.000000 110.000000 0.540933 0.542542 0.385168 0.514476
11 55.000000 110.000000 110.000000 0.403301 0.533083 0.496905 0.553404
12 55.000000 110.000000 110.000000 0.748188 0.636906 0.135902 0.126872
13 55.000000 110.000000 110.000000 0.556539 0.173464 0.199242 0.787704
14 55.000000 110.000000 110.000000 0.434465 0.498261 0.737120 0.140106
15 55.000000 110.000000 110.000000 0.407229 0.528188 0.507207 0.545823
16 55.000000 110.000000 110.000000 0.546368 0.217101 0.658142 0.470318
17 55.000000 110.000000 110.000000 0.640941 0.566016 0.342937 0.388863
18 55.000000 110.000000 110.000000 0.555221 0.399768 0.629980 0.367479
19 55.000000 110.000000 110.000000 0.634128 0.234502 0.640491 0.364227
20 55.000000 110.000000 110.000000 0.515525 0.588077 0.375332 0.497520
21 55.000000 110.000000 110.000000 0.265527 0.588798 0.675182 0.356288
22 55.000000 110.000000 110.000000 0.587009 0.634631 0.221924 0.451014
23 55.000000 110.000000 110.000000 0.544949 0.690665 0.092682 0.466286
24 55.000000 110.000000 110.000000 0.512567 0.437683 0.242472 0.697794
25 55.000000 110.000000 110.000000 0.694646 0.104859 0.557072 0.442880
26 55.000000 110.000000 110.000000 0.599612 0.182356 0.749699 0.212518
27 55.000000 110.000000 110.000000 0.610160 0.429688 0.058425 0.663068
28 55.000000 110.000000 110.000000 0.560682 0.052001 0.524222 0.638845
29 55.000000 110.000000 110.000000 0.175613 0.873830 0.287805 0.350357
30 55.000000 110.000000 110.000000 0.087787 0.023322 0.979869 0.177784
31 55.000000 110.000000 110.000000 0.490209 0.489762 0.629016 0.352375
32 55.000000 110.000000 110.000000 0.203480 0.487865 0.356614 0.770331
33 55.000000 110.000000 110.000000 0.593128 0.757170 0.195597 0.191403
34 55.000000 110.000000 110.000000 0.157637 0.771326 0.077854 0.611675
35 55.000000 110.000000 110.000000 0.683621 0.323294 0.237434 0.609729
36 55.000000 110.000000 110.000000 0.188568 0.665558 0.305820 0.654178
37 55.000000 110.000000 110.000000 0.346204 0.876514 0.056127 0.329721
38 55.000000 110.000000 110.000000 0.430563 0.718366 0.401209 0.370940
39 55.000000 110.000000 110.000000 0.616087 0.656127 0.301706 0.314495
40 55.000000 110.000000 110.000000 0.399422 0.664426 0.513618 0.367691
41 55.000000 110.000000 110.000000 0.548686 0.544586 0.235333 0.589057
42 55.000000 110.000000 110.000000 0.614167 0.666166 0.017833 0.422734
43 55.000000 110.000000 110.000000 0.662626 0.333878 0.639176 0.202254
44 55.000000 110.000000 110.000000 0.092341 0.933745 0.136091 0.317920
45 55.000000 110.000000 110.000000 0.520691 0.573996 0.556868 0.298842
46 55.000000 110.000000 110.000000 0.662054 0.024326 0.088980 0.743758
47 55.000000 110.000000 110.000000 0.677180 0.475208 0.268441 0.493502
48 55.000000 110.000000 110.000000 0.608308 0.466719 0.641915 0.008939
49 55.000000 110.000000 110.000000 0.114046 0.779297 0.411751 0.458423
50 55.000000 110.000000 110.000000 0.238740 0.120857 0.887916 0.374168
51 55.000000 110.000000 110.000000 0.603631 0.444053 0.143934 0.646320
52 55.000000 110.000000 110.000000 0.570322 0.340894 0.418139 0.619422
53 55.000000 110.000000 110.000000 0.243560 0.687780 0.634548 0.254925
54 55.000000 110.000000 110.000000 0.284605 0.191503 0.568794 0.747529
55 55.000000 110.000000 110.000000 0.679324 0.320783 0.155962 0.641322
56 55.000000 110.000000 110.000000 0.580727 0.758264 0.143993 0.258955
57 55.000000 110.000000 110.000000 0.341320 0.600325 0.572611 0.441846
58 55.000000 110.000000 110.000000 0.277340 0.642285 0.510991 0.499441
59 55.000000 110.000000 110.000000 0.675780 0.084012 0.306970 0.664855
60 55.000000 110.000000 110.000000 0.371200 0.491560 0.671587 0.411765




