ITEM: TIMESTEP
0
ITEM: NUMBER OF ATOMS
40
ITEM: BOX BOUNDS pp pp pp
-5.0000000000000000e+02 5.0000000000000000e+02
-5.0000000000000000e+02 5.0000000000000000e+02
-5.0000000000000000e+02 5.0000000000000000e+02
ITEM: ATOMS id type x y z c_q[1] c_q[2] c_q[3] c_q[4] 
1 1 -500 -500 -500 0.810247 0.345085 0.471967 0.040779 
2 1 -250 -500 -500 0.066819 0.654179 0.141084 0.740055 
3 1 0 -500 -500 0.687161 0.298557 0.21213 0.627435 
4 1 250 -500 -500 0.570781 0.596207 0.562605 0.047144 
5 1 -500 -250 -500 0.660887 0.455787 0.575781 0.154797 
6 1 -250 -250 -500 0.089481 0.634673 0.767396 0.016944 
7 1 0 -250 -500 0.774864 0.407969 0.036018 0.481508 
8 1 250 -250 -500 0.690742 0.461313 0.437619 0.34432 
9 1 -500 0 -500 0.504765 0.561125 0.452311 0.475148 
10 1 -250 0 -500 0.140264 0.649597 0.424739 0.614773 
11 1 0 0 -500 0.741908 0.518674 0.390342 0.167877 
12 1 250 0 -500 0.583941 0.517412 0.56669 0.264877 
13 1 -500 250 -500 0.372634 0.036759 0.425843 0.823681 
14 1 -250 250 -500 0.706636 0.30796 0.296526 0.563825 
15 1 0 250 -500 0.191384 0.710321 0.044726 0.675882 
16 1 250 250 -500 0.17074 0.339752 0.91387 0.14233 
17 1 -500 -500 -250 0.052731 0.507227 0.428409 0.745926 
18 1 -250 -500 -250 0.489388 0.632537 0.263916 0.539208 
19 1 0 -500 -250 0.463843 0.222514 0.327133 0.792667 
20 1 250 -500 -250 0.604547 0.456004 0.231252 0.610824 
21 1 -500 -250 -250 0.24138 0.678346 0.495391 0.485974 
22 1 -250 -250 -250 0.137128 0.943959 0.115655 0.27706 
23 1 0 -250 -250 0.716735 0.129413 0.638803 0.247939 
24 1 250 -250 -250 0.496954 0.776161 0.11393 0.370987 
25 1 -500 0 -250 0.6452 0.395068 0.64875 0.082232 
26 1 -250 0 -250 0.655618 0.515602 0.545719 0.080688 
27 1 0 0 -250 0.001016 0.571135 0.526233 0.629987 
28 1 250 0 -250 0.562506 0.22781 0.580595 0.54277 
29 1 -500 250 -250 0.407097 0.387059 0.496 0.662149 
30 1 -250 250 -250 0.666896 0.535904 0.066439 0.513461 
31 1 0 250 -250 0.7906 0.172293 0.327506 0.48786 
32 1 250 250 -250 0.684333 0.296491 0.476816 0.465219 
33 1 -500 -500 0 0.147941 0.221876 0.063913 0.961665 
34 1 -250 -500 0 0.36538 0.062062 0.22006 0.902341 
35 1 0 -500 0 0.389605 0.486651 0.36809 0.689846 
36 1 250 -500 0 0.450572 0.761369 0.388072 0.258267 
37 1 -500 -250 0 0.578937 0.391068 0.580993 0.417547 
38 1 -250 -250 0 0.782332 0.073293 0.583056 0.206469 
39 1 0 -250 0 0.703844 0.606262 0.243919 0.278485 
40 1 250 -250 0 0.365574 0.179564 0.789117 0.459789 
ITEM: TIMESTEP
10000
ITEM: NUMBER OF ATOMS
40
ITEM: BOX BOUNDS pp pp pp
-5.0000000000000000e+02 5.0000000000000000e+02
-5.0000000000000000e+02 5.0000000000000000e+02
-5.0000000000000000e+02 5.0000000000000000e+02
ITEM: ATOMS id type x y z c_q[1] c_q[2] c_q[3] c_q[4] 
2 1 -251.802 -497.111 -496.759 0.0668218 0.675666 0.0794416 0.729863 
3 1 -3.80405 -496.261 -499.688 0.676624 0.270362 0.209464 0.652081 
1 1 497.571 -497.523 -494.967 0.800447 0.35168 0.485378 0.00370962 
5 1 -499.111 -253.222 -499.161 0.606197 0.475299 0.60263 0.208453 
7 1 1.78304 -250.247 -498.099 0.773893 0.394884 -0.0119344 0.49499 
8 1 252.578 -249.871 -498.991 0.683901 0.461321 0.46768 0.317392 
10 1 -251.084 -0.879323 -499.66 0.1472 0.614722 0.407828 0.658882 
11 1 -0.0831421 0.689079 -494.998 0.796159 0.47078 0.347356 0.154402 
15 1 -0.222222 257.929 497.704 0.178396 0.719163 0.039114 0.670409 
16 1 250.402 248.5 -497.647 0.151408 0.346628 0.912814 0.153931 
21 1 -496.12 -249.609 -247.142 0.17491 0.668517 0.541877 0.478394 
22 1 -251.84 -249.497 -243.102 0.111286 0.939003 0.157496 0.284752 
23 1 4.11845 -254.217 -248.782 0.718142 0.117414 0.636443 0.255786 
24 1 252.331 -253.929 -247.708 0.540638 0.750614 0.13408 0.355404 
26 1 -241.92 -2.40854 -252.138 0.641056 0.534895 0.545083 0.0762865 
27 1 2.06482 3.49498 -244.975 -0.0555567 0.578678 0.54422 0.604871 
28 1 247.393 1.83329 -252.663 0.584667 0.235586 0.546721 0.551145 
25 1 498.829 3.98695 -251.808 0.642675 0.41005 0.642593 0.07682 
30 1 -245.297 245.633 -248.49 0.634689 0.570788 0.0964045 0.511935 
31 1 -1.10689 252.278 -247.664 0.794127 0.213934 0.318559 0.47129 
32 1 249.328 249.268 -251.153 0.683026 0.29264 0.498587 0.446372 
29 1 496.938 252.677 -248.763 0.374468 0.386274 0.520341 0.663183 
17 1 -499.89 -498.954 -256.365 0.00777023 0.486879 0.440156 0.754421 
18 1 -247.369 499.512 -248.973 0.455602 0.634596 0.313502 0.539844 
19 1 -4.24398 499.861 -245.418 0.472629 0.180745 0.359033 0.78425 
20 1 248.816 489.899 -253.343 0.606384 0.436432 0.177696 0.640507 
39 1 1.97856 -252.934 -4.63089 0.667407 0.62669 0.268814 0.299276 
40 1 247.632 -252.122 -0.94832 0.372299 0.191888 0.760904 0.495578 
37 1 495.211 -256.426 -5.5852 0.611383 0.369125 0.542429 0.442412 
35 1 7.7547 495.503 0.38331 0.362803 0.484143 0.382839 0.698151 
36 1 258.678 498.795 -1.59313 0.46225 0.765784 0.369737 0.251385 
33 1 -499.638 494.49 -0.683523 0.183226 0.200911 0.0838146 0.958665 
34 1 -254.843 -498.513 1.13314 0.367527 0.114917 0.22437 0.895196 
38 1 -254.021 -245.877 2.55211 0.757837 0.0521536 0.628132 0.168564 
4 1 258.462 -496.452 498.354 0.575591 0.609156 0.545044 0.0234643 
6 1 -252.801 -248.369 496.877 0.0929462 0.657036 0.748085 0.00580581 
9 1 495.559 -1.03147 492.382 0.482268 0.539001 0.454445 0.519976 
12 1 251.768 5.94901 495.295 0.658433 0.479596 0.519173 0.258675 
14 1 -251.193 249.471 491.088 0.708972 0.302225 0.296795 0.563854 
13 1 492.41 251.914 495.203 0.304487 0.0686174 0.416509 0.853873 
ITEM: TIMESTEP
20000
ITEM: NUMBER OF ATOMS
40
ITEM: BOX BOUNDS pp pp pp
-5.0000000000000000e+02 5.0000000000000000e+02
-5.0000000000000000e+02 5.0000000000000000e+02
-5.0000000000000000e+02 5.0000000000000000e+02
ITEM: ATOMS id type x y z c_q[1] c_q[2] c_q[3] c_q[4] 
2 1 -250.19 499.599 -494.134 0.0232497 0.669703 0.0899271 0.736797 
1 1 498.622 -497.941 -498.843 0.809001 0.35325 0.469486 -0.0177549 
7 1 1.88699 -259.083 -497.907 0.782158 0.36744 0.00420163 0.503189 
8 1 251.118 -250.168 -494.689 0.648803 0.475797 0.501544 0.318003 
10 1 -247.984 -3.65213 -496.989 0.131994 0.638344 0.386983 0.65218 
11 1 0.963819 -1.58063 -495.856 0.81076 0.470763 0.266108 0.224137 
15 1 1.6882 258.112 -494.519 0.122495 0.716472 0.0396128 0.685634 
18 1 -247.065 -494.641 -251.095 0.464422 0.67173 0.285749 0.501436 
19 1 -3.54666 -498.577 -242.162 0.49752 0.184273 0.371729 0.761797 
21 1 -497.456 -249.665 -255.154 0.149514 0.677403 0.533475 0.483917 
22 1 -251.448 -255.562 -241.535 0.141719 0.946095 0.169899 0.236546 
23 1 8.01338 -254.714 -247.106 0.707037 0.139501 0.649898 0.241392 
24 1 251.968 -254.609 -252.81 0.562746 0.738199 0.163118 0.334323 
26 1 -240.025 -5.0177 -250.999 0.676928 0.537956 0.491948 0.101779 
28 1 251.569 -1.77944 -252.486 0.590567 0.236384 0.580681 0.508097 
27 1 -1.58837 5.44554 -247.189 -0.0243553 0.600259 0.539159 0.590257 
25 1 492.585 0.980819 -251.156 0.624757 0.386129 0.67484 0.0719359 
30 1 -246.264 244.415 -246.165 0.663333 0.589538 0.0942876 0.451159 
31 1 0.473526 252.745 -248.362 0.77072 0.23123 0.352513 0.477764 
32 1 247.553 250.892 -249.087 0.677216 0.31718 0.496143 0.441155 
29 1 497.452 256.128 -248.483 0.395977 0.326998 0.518475 0.683709 
20 1 243.662 488.275 -253.982 0.587452 0.435404 0.206853 0.650027 
17 1 497.338 -498.548 -255.959 0.0457618 0.484704 0.393503 0.779823 
39 1 7.68145 -254.904 -4.89678 0.683602 0.632312 0.239577 0.274724 
40 1 248.857 -254.662 -0.713655 0.356526 0.175865 0.789246 0.468029 
37 1 496.225 -256.11 -3.60994 0.617706 0.358778 0.534936 0.451177 
34 1 -256.089 496.219 -2.64104 0.410166 0.0978346 0.233571 0.876149 
35 1 13.3029 496.41 -0.185667 0.362837 0.509053 0.406192 0.6665 
36 1 256.748 498.049 -0.538409 0.446832 0.76177 0.394986 0.253048 
33 1 496.871 496.764 -2.14725 0.171848 0.217594 0.0804577 0.957417 
38 1 -249.986 -243.325 4.7905 0.728862 0.0656302 0.655332 0.187066 
3 1 -6.03315 -494.917 498.635 0.686324 0.215766 0.218478 0.659296 
6 1 -253.309 -246.859 498.813 0.106664 0.619194 0.777825 0.0144744 
5 1 499.964 -246.893 499.101 0.582534 0.477349 0.633078 0.178898 
12 1 251.747 4.79484 497.758 0.678447 0.492545 0.48313 0.252378 
9 1 494.236 1.60299 489.746 0.436666 0.597192 0.46511 0.486166 
14 1 -256.181 248.175 488.101 0.681937 0.295107 0.340971 0.575858 
16 1 247.493 246.753 -498.984 0.131474 0.358027 0.907965 0.173584 
13 1 494.046 248.729 491.709 0.316241 0.0824257 0.463175 0.823812 
4 1 259.686 -499.114 498.066 0.571325 0.622932 0.533972 -0.0204312 
ITEM: TIMESTEP
30000
ITEM: NUMBER OF ATOMS
40
ITEM: BOX BOUNDS pp pp pp
-5.0000000000000000e+02 5.0000000000000000e+02
-5.0000000000000000e+02 5.0000000000000000e+02
-5.0000000000000000e+02 5.0000000000000000e+02
ITEM: ATOMS id type x y z c_q[1] c_q[2] c_q[3] c_q[4] 
6 1 -252.354 -245.917 -497.279 0.0603324 0.63041 0.772975 -0.0381314 
7 1 -2.71411 -255.254 -499.65 0.784704 0.358623 0.0258033 0.504939 
8 1 248.219 -253.783 -497.324 0.666473 0.480346 0.479496 0.308488 
11 1 0.98962 0.740883 -492.84 0.802193 0.477601 0.231811 0.273217 
16 1 251.259 241.879 -499.407 0.124735 0.390241 0.894197 0.180458 
2 1 -250.42 -499.884 -494.699 0.00313704 0.661308 0.150978 0.734756 
4 1 263.551 493.426 -496.77 0.544477 0.674792 0.497493 -0.026484 
18 1 -245.92 -491.067 -249.861 0.470292 0.659877 0.247428 0.531194 
19 1 0.54063 -495.035 -244.238 0.468278 0.200193 0.400988 0.761477 
17 1 495.923 -499.558 -258.11 0.0808986 0.490948 0.410989 0.763881 
21 1 -497.315 -251.094 -253.501 0.12736 0.688006 0.56547 0.436659 
22 1 -252.396 -257.377 -237.33 0.135048 0.94642 0.180525 0.23122 
23 1 6.62152 -254.009 -250.679 0.71489 0.122682 0.636294 0.262699 
24 1 244.905 -260.26 -248.987 0.58563 0.718865 0.106725 0.359 
26 1 -235.891 -2.98097 -248.684 0.696358 0.523961 0.485461 0.069845 
28 1 256.813 -0.286983 -252.272 0.603294 0.297909 0.570019 0.471556 
27 1 -0.606505 4.16346 -243.578 -0.0739233 0.595281 0.534615 0.595284 
25 1 490.501 1.20478 -255.26 0.605291 0.425224 0.672304 0.0285676 
30 1 -244.21 248.203 -248.727 0.66903 0.576356 0.111097 0.455928 
31 1 -3.65286 250.53 -248.386 0.75672 0.243203 0.38915 0.465606 
32 1 251.419 248.635 -244.223 0.70526 0.311664 0.474812 0.424297 
29 1 490.939 257.193 -251.33 0.479045 0.303478 0.463258 0.681035 
20 1 237.562 488.698 -251.275 0.595671 0.448779 0.234454 0.623542 
34 1 -256.497 -498.864 -7.0525 0.359436 0.0656502 0.229838 0.902037 
39 1 5.75925 -249.397 -6.99991 0.718061 0.603133 0.229505 0.260667 
37 1 497.453 -254.077 -5.01379 0.586862 0.355249 0.542333 0.485042 
33 1 498.331 499.248 -2.11528 0.210392 0.18675 0.0573517 0.957899 
38 1 -248.922 -243.984 4.82254 0.714621 0.0740393 0.674584 0.169622 
40 1 252.444 -257.193 0.357865 0.391243 0.222754 0.772468 0.447887 
35 1 16.513 495.346 0.985266 0.392707 0.529071 0.400379 0.636837 
36 1 249.959 496.802 1.44741 0.458098 0.778959 0.341144 0.258824 
1 1 499.731 -497.623 497.455 0.821404 0.348011 0.450523 -0.0348348 
3 1 -5.71216 -495.874 -499.298 0.680557 0.221341 0.264085 0.646614 
5 1 499.494 -250.261 498.633 0.587052 0.468137 0.636459 0.176459 
10 1 -248.885 -3.22885 494.425 0.137811 0.632822 0.392848 0.652852 
12 1 252.787 5.32326 499.477 0.679005 0.508774 0.473707 0.236014 
9 1 488.975 0.116982 485.39 0.421825 0.622878 0.453864 0.477592 
14 1 -253.458 252.967 490.977 0.667388 0.267923 0.33654 0.607908 
15 1 1.63867 254.673 498.011 0.133272 0.68721 0.0715803 0.710533 
13 1 488.749 248.578 492.614 0.322807 0.0180751 0.440477 0.837525 
ITEM: TIMESTEP
40000
ITEM: NUMBER OF ATOMS
40
ITEM: BOX BOUNDS pp pp pp
-5.0000000000000000e+02 5.0000000000000000e+02
-5.0000000000000000e+02 5.0000000000000000e+02
-5.0000000000000000e+02 5.0000000000000000e+02
ITEM: ATOMS id type x y z c_q[1] c_q[2] c_q[3] c_q[4] 
3 1 -1.1994 -493.029 -499.075 0.684361 0.214097 0.253623 0.649221 
6 1 -254.199 -245.526 -496.493 0.00125944 0.644129 0.763311 -0.0495217 
7 1 0.744634 -256.686 -497.801 0.768516 0.39389 -0.0413924 0.502515 
8 1 251.035 -254.546 -499.349 0.677036 0.522299 0.430423 0.28907 
5 1 498.924 -247.827 -499.745 0.616405 0.40624 0.637333 0.220955 
11 1 1.20964 2.88482 -496.009 0.80823 0.465894 0.24009 0.268447 
16 1 249.468 240.91 -495.903 0.17474 0.376796 0.899922 0.132784 
2 1 -250.533 498.206 -495.293 0.00713263 0.659624 0.180404 0.729588 
4 1 272.012 493.383 -492.515 0.537499 0.670656 0.511174 -0.00408946 
18 1 -247.692 -488.363 -246.91 0.395314 0.713942 0.274586 0.508543 
19 1 -2.57566 -495.136 -242.821 0.42595 0.211951 0.420547 0.772518 
17 1 497.041 -495.059 -257.943 0.102532 0.467923 0.428429 0.766149 
21 1 -498.232 -247.753 -256.442 0.112442 0.680151 0.573517 0.442525 
22 1 -256.205 -262.127 -237.953 0.128068 0.959037 0.170949 0.186075 
23 1 6.58492 -255.336 -253.544 0.748891 0.101921 0.598571 0.265495 
24 1 246.218 -262.168 -245.425 0.610866 0.676981 0.131719 0.388831 
26 1 -234.653 -2.21161 -245.837 0.692084 0.506218 0.502635 0.110094 
27 1 0.615634 0.816495 -246.28 -0.0548299 0.589856 0.558656 0.580488 
28 1 256 -0.200401 -250.177 0.63868 0.277847 0.589624 0.408941 
25 1 487.278 4.96631 -258.321 0.623853 0.399016 0.669561 0.0572951 
30 1 -247.803 254.845 -249.024 0.695883 0.56309 0.0988403 0.434634 
31 1 -0.673752 248.822 -247.794 0.764181 0.226728 0.401956 0.450613 
32 1 253.957 249.89 -241.548 0.708397 0.276148 0.445042 0.473131 
29 1 489.231 255.955 -246.56 0.488572 0.305318 0.465903 0.671574 
20 1 242.996 486.79 -251.667 0.579745 0.464269 0.264469 0.615147 
33 1 -498.092 -497.928 -0.273841 0.224179 0.176464 0.0925656 0.953958 
35 1 15.4303 498.536 -2.96257 0.35695 0.550604 0.418401 0.627983 
37 1 -496.996 -253.704 -8.88658 0.596577 0.387389 0.542889 0.446427 
39 1 5.1177 -253.511 -7.87602 0.698909 0.620968 0.24169 0.259828 
34 1 -256.982 498.687 -6.04021 0.348234 0.0450166 0.207804 0.912976 
38 1 -247.269 -246.151 5.64777 0.705414 0.0794123 0.691436 0.134166 
40 1 251.873 -262.556 4.11577 0.367577 0.247975 0.796019 0.412007 
36 1 248.902 497.617 3.7625 0.461023 0.754425 0.358324 0.29984 
1 1 -495.296 -495.83 499.158 0.833232 0.316697 0.452639 -0.0233499 
10 1 -252.678 3.89308 499.168 0.123032 0.615004 0.399469 0.668624 
12 1 255.396 7.21887 498.32 0.680046 0.5359 0.41638 0.277447 
9 1 486.713 3.36264 489.465 0.344791 0.568251 0.531597 0.52499 
14 1 -253.276 254.557 493.406 0.65382 0.279124 0.351314 0.609252 
15 1 6.26625 253.959 497.775 0.142537 0.69096 0.0590944 0.706233 
13 1 485.418 244.612 491.938 0.362649 0.0535956 0.484512 0.794268 
ITEM: TIMESTEP
50000
ITEM: NUMBER OF ATOMS
40
ITEM: BOX BOUNDS pp pp pp
-5.0000000000000000e+02 5.0000000000000000e+02
-5.0000000000000000e+02 5.0000000000000000e+02
-5.0000000000000000e+02 5.0000000000000000e+02
ITEM: ATOMS id type x y z c_q[1] c_q[2] c_q[3] c_q[4] 
2 1 -250.842 -497.942 -497.308 -0.00304627 0.691723 0.141587 0.70814 
6 1 -255.159 -251.745 -495.086 0.0201126 0.605517 0.79458 -0.0398428 
7 1 -3.01095 -260.045 -496.878 0.801277 0.361144 -0.0343874 0.47576 
8 1 250.314 -253.072 -493.515 0.696332 0.500959 0.436391 0.271524 
11 1 1.43905 4.86431 -494.581 0.824469 0.45862 0.213581 0.253579 
16 1 250.519 245.297 -489.57 0.157723 0.430051 0.878989 0.132509 
4 1 270.602 488.726 -484.827 0.549594 0.655258 0.517775 -0.0221666 
18 1 -248.851 -482.595 -246.362 0.431996 0.688064 0.211526 0.543327 
19 1 1.99757 -495.279 -242.455 0.408857 0.203109 0.405364 0.791999 
17 1 494.09 -498.321 -255.864 0.0758219 0.454848 0.375865 0.803797 
22 1 -257.871 -261.067 -235.783 0.157489 0.954328 0.201358 0.154626 
23 1 6.38 -258.229 -251.633 0.776678 0.0948769 0.571015 0.248418 
24 1 245.678 -259.415 -248.866 0.615578 0.675889 0.180069 0.363061 
21 1 498.811 -242.295 -254.381 0.143636 0.649015 0.577532 0.473925 
26 1 -238.562 -4.05611 -242.126 0.696225 0.50521 0.500539 0.097434 
28 1 259.221 -2.54717 -252.153 0.671872 0.293804 0.573423 0.365313 
27 1 -5.43723 3.55093 -249.464 -0.0437011 0.569791 0.55711 0.602542 
25 1 486.448 3.07369 -261.912 0.559213 0.407141 0.7156 0.0971253 
30 1 -246.161 250.206 -247.774 0.730106 0.531067 0.0761901 0.423212 
31 1 -2.26084 252.776 -249.547 0.798581 0.232079 0.364883 0.418651 
32 1 257.491 250.917 -243.123 0.721037 0.284776 0.444511 0.448797 
29 1 491.058 260.234 -250.669 0.545143 0.325838 0.411616 0.653621 
20 1 242.115 488.274 -256.359 0.564194 0.436942 0.286714 0.639188 
34 1 -256.563 -499.577 -2.06147 0.360873 0.0403961 0.20392 0.909151 
37 1 -497.646 -251.18 -6.27984 0.596811 0.336773 0.519772 0.510136 
39 1 -0.0379918 -255.088 -9.16312 0.700309 0.629179 0.2629 0.211151 
35 1 14.4994 498.659 -4.91461 0.324686 0.541625 0.456999 0.626397 
36 1 252.963 494.852 -0.203955 0.493982 0.742299 0.334313 0.305303 
33 1 498.184 -492.615 1.36085 0.244824 0.190565 0.0969075 0.945703 
38 1 -250.053 -248.974 7.91723 0.723127 0.0821189 0.664549 0.169467 
40 1 254.286 -262.28 5.38357 0.376761 0.248979 0.835164 0.313946 
1 1 -498.689 -496.94 494.024 0.8116 0.279271 0.510643 -0.0505683 
3 1 -2.71095 -498.63 497.555 0.665446 0.197606 0.230844 0.681795 
5 1 490.984 -245.033 498.155 0.593429 0.443344 0.639729 0.205025 
10 1 -248.29 2.17402 495.194 0.10123 0.61023 0.421254 0.663262 
12 1 256.494 13.104 499.064 0.673882 0.54194 0.422515 0.271412 
9 1 491.811 5.2471 490.653 0.330507 0.523142 0.563528 0.547287 
14 1 -246.745 250.938 488.839 0.639398 0.243561 0.355972 0.636499 
15 1 2.34161 253.642 496.907 0.152621 0.713175 0.0830037 0.679116 
13 1 489.51 242.116 494.529 0.369914 0.0460365 0.474381 0.7975 
ITEM: TIMESTEP
60000
ITEM: NUMBER OF ATOMS
40
ITEM: BOX BOUNDS pp pp pp
-5.0000000000000000e+02 5.0000000000000000e+02
-5.0000000000000000e+02 5.0000000000000000e+02
-5.0000000000000000e+02 5.0000000000000000e+02
ITEM: ATOMS id type x y z c_q[1] c_q[2] c_q[3] c_q[4] 
6 1 -253.97 -250.57 -496.936 0.00373212 0.592714 0.803087 -0.0610528 
7 1 -2.10437 -259.739 -496.284 0.800657 0.314593 -0.0430123 0.508065 
8 1 254.369 -259.933 -492.216 0.689621 0.525852 0.415868 0.273783 
11 1 1.63532 1.63114 -495.132 0.840517 0.444701 0.180864 0.251118 
16 1 253.618 244.377 -493.994 0.173918 0.415108 0.87859 0.159743 
4 1 266.007 483.904 -485.147 0.541973 0.653788 0.527803 0.0158013 
17 1 -497.43 -497.467 -255.141 0.074164 0.43073 0.375339 0.817369 
18 1 -250.691 -482.057 -239.62 0.448214 0.708297 0.214686 0.501327 
19 1 8.22427 -499.024 -240.806 0.411722 0.224456 0.416485 0.778874 
22 1 -254.679 -255.734 -234.984 0.110801 0.977335 0.137574 0.116671 
23 1 9.7477 -253.671 -252.73 0.778946 0.108151 0.585697 0.196229 
24 1 250.37 -257.335 -255.537 0.585634 0.68628 0.130595 0.411092 
21 1 493.26 -243.342 -254.242 0.146918 0.641021 0.589113 0.469525 
26 1 -241.497 -5.52258 -238.425 0.689206 0.485442 0.529334 0.09564 
27 1 -7.87426 0.0198329 -251.498 -0.0650844 0.578946 0.554751 0.594001 
28 1 260.754 -5.47793 -247.136 0.680942 0.294911 0.561402 0.366296 
25 1 488.739 2.2932 -263.452 0.536168 0.408863 0.737406 0.0398383 
30 1 -244.544 251.395 -249.155 0.72271 0.54096 0.00454274 0.430152 
31 1 -3.32272 253.51 -244.619 0.777467 0.238707 0.379193 0.441335 
32 1 257.788 248.84 -244.258 0.709215 0.286953 0.462126 0.448454 
29 1 491.443 259.86 -253.216 0.56271 0.321617 0.425688 0.631434 
20 1 244.14 486.632 -259.83 0.588647 0.448812 0.250515 0.623943 
33 1 499.412 -494.33 -1.14169 0.32055 0.18816 0.0967089 0.923304 
34 1 -265.56 -496.178 -4.09374 0.361241 0.0592065 0.21824 0.904638 
37 1 -497.038 -256.228 -5.43606 0.559724 0.360296 0.536716 0.518489 
39 1 2.05934 -253.343 -10.5782 0.677731 0.648893 0.283259 0.198448 
35 1 18.7569 499.276 -6.97757 0.377891 0.512317 0.426681 0.642396 
38 1 -244.614 -250.177 12.208 0.740595 0.0766417 0.647123 0.163938 
40 1 251.31 -263.197 3.91546 0.396177 0.299746 0.816124 0.29519 
36 1 252.046 493.75 6.40003 0.481341 0.777853 0.313648 0.254715 
2 1 -257.002 -494.694 498.583 0.0254483 0.656732 0.129051 0.742564 
1 1 494.882 -494.774 492.357 0.85304 0.241198 0.462155 -0.0236461 
5 1 485.291 -245.647 495.142 0.61224 0.435804 0.630646 0.193707 
10 1 -248.653 1.4103 493.755 0.112033 0.592842 0.42218 0.676573 
12 1 261.329 13.5096 495.41 0.686528 0.564392 0.414415 0.195962 
9 1 489.672 5.74985 487.599 0.301969 0.553894 0.571203 0.525113 
14 1 -244.225 251.161 492.02 0.62461 0.18626 0.368922 0.662621 
15 1 4.36032 251.312 496.578 0.156176 0.740191 0.0730463 0.649916 
13 1 487.064 236.506 495.514 0.398236 0.0344728 0.444421 0.801692 
3 1 -2.83454 497.446 490.161 0.698664 0.21916 0.226703 0.642217 
ITEM: TIMESTEP
70000
ITEM: NUMBER OF ATOMS
40
ITEM: BOX BOUNDS pp pp pp
-5.0000000000000000e+02 5.0000000000000000e+02
-5.0000000000000000e+02 5.0000000000000000e+02
-5.0000000000000000e+02 5.0000000000000000e+02
ITEM: ATOMS id type x y z c_q[1] c_q[2] c_q[3] c_q[4] 
6 1 -252.376 -254.071 -497.551 0.00582156 0.572372 0.818144 -0.0547508 
7 1 -4.27169 -261.131 -490.856 0.806742 0.317579 -0.00686106 0.498261 
8 1 253.621 -253.825 -490.176 0.676549 0.515043 0.433954 0.29782 
11 1 2.37034 4.50816 -495.402 0.833746 0.453725 0.177342 0.259907 
16 1 256.29 237.676 -492.512 0.168056 0.366903 0.895899 0.185755 
4 1 262.934 481.036 -489.318 0.532492 0.634105 0.560666 0.00411989 
17 1 -497.855 -498.628 -254.655 0.0630634 0.449353 0.365191 0.81286 
18 1 -249.281 -481.103 -242.305 0.452967 0.706422 0.239133 0.488471 
19 1 7.2359 -499.231 -245.666 0.428745 0.280239 0.421809 0.748145 
22 1 -254.974 -258.778 -236.813 0.114676 0.975257 0.152294 0.111938 
23 1 8.37527 -249.687 -256.742 0.777094 0.0929539 0.581146 0.223057 
24 1 253.402 -256.246 -254.69 0.581164 0.680666 0.160129 0.416295 
21 1 488.062 -239.52 -253.275 0.177405 0.651569 0.606071 0.420313 
26 1 -242.441 -3.30311 -241.965 0.652877 0.510431 0.552169 0.0912262 
28 1 261.693 -3.51835 -246.878 0.644436 0.295074 0.581158 0.399862 
27 1 -4.29596 3.20118 -258.014 -0.0474484 0.583261 0.582286 0.564356 
25 1 491.904 2.03969 -264.389 0.505382 0.45218 0.734633 0.020901 
30 1 -244.848 252.121 -252.425 0.718642 0.547909 -0.0762826 0.421343 
31 1 -2.66744 254.64 -244.642 0.772838 0.257028 0.348179 0.464144 
32 1 262.515 244.806 -240.865 0.725892 0.292469 0.444664 0.435679 
29 1 491.337 261.645 -252.981 0.534866 0.362655 0.423883 0.634605 
20 1 232.724 487.258 -257.351 0.581929 0.451542 0.245254 0.630332 
33 1 -498.464 -490.735 -1.92027 0.349433 0.197536 0.0842193 0.912022 
39 1 0.272603 -253.328 -7.11212 0.668295 0.657922 0.252067 0.238712 
37 1 499.338 -251.853 -8.50034 0.552837 0.34424 0.548034 0.524909 
35 1 18.0855 496.622 -8.72986 0.380106 0.473471 0.475111 0.636878 
38 1 -246.374 -249.872 13.8662 0.735177 0.0350177 0.65741 0.161557 
40 1 249.941 -266.782 0.326321 0.36515 0.2614 0.840933 0.301941 
34 1 -266.6 497.806 3.35902 0.363941 0.0369709 0.175507 0.91399 
36 1 251.828 487.895 8.27436 0.480443 0.779741 0.302002 0.264523 
1 1 -499.404 -492.939 493.679 0.849048 0.212365 0.482636 -0.0328776 
2 1 -261.242 -498.601 -499.811 0.00828338 0.691587 0.101305 0.715106 
5 1 485.652 -241.304 498.591 0.618762 0.446602 0.60746 0.220619 
10 1 -243.564 2.10436 493.369 0.14406 0.517739 0.453898 0.710753 
12 1 266.938 16.5843 496.448 0.672017 0.527182 0.459247 0.244058 
9 1 487.214 8.64829 485.096 0.282315 0.492595 0.57295 0.591081 
14 1 -249.508 247.567 484.268 0.611542 0.192361 0.404226 0.652391 
15 1 1.76011 253.743 495.786 0.196691 0.727013 0.0957871 0.650838 
13 1 489.993 233.51 495.541 0.403781 -0.00564563 0.471061 0.784239 
3 1 -8.84027 491.931 488.629 0.667104 0.238411 0.226853 0.668334 
ITEM: TIMESTEP
80000
ITEM: NUMBER OF ATOMS
40
ITEM: BOX BOUNDS pp pp pp
-5.0000000000000000e+02 5.0000000000000000e+02
-5.0000000000000000e+02 5.0000000000000000e+02
-5.0000000000000000e+02 5.0000000000000000e+02
ITEM: ATOMS id type x y z c_q[1] c_q[2] c_q[3] c_q[4] 
2 1 -268.965 -497.076 -498.827 -0.00674744 0.713323 0.0800206 0.696219 
6 1 -247.87 -254.022 -498.048 0.00189709 0.569493 0.816314 -0.0964663 
7 1 -4.63018 -258.789 -495.077 0.81314 0.321618 -0.0347409 0.483898 
8 1 247.525 -255.581 -489.465 0.687547 0.505897 0.425479 0.300523 
11 1 4.9127 13.5837 -499.395 0.861565 0.411207 0.150832 0.256642 
16 1 254.173 232.069 -496.352 0.174811 0.404597 0.875468 0.198241 
4 1 266.498 487.249 -489.79 0.534501 0.657284 0.531271 -0.00615044 
18 1 -250.423 -470.845 -240.481 0.429821 0.730319 0.215251 0.485341 
22 1 -252.132 -257.337 -234.48 0.105339 0.9762 0.175364 0.0719989 
23 1 9.77377 -250.313 -253.041 0.796397 0.080989 0.568254 0.190473 
24 1 253.602 -250.9 -254.498 0.553798 0.677614 0.170835 0.452728 
21 1 483.344 -248.175 -252.919 0.165282 0.67318 0.599057 0.400802 
26 1 -243.066 -2.88425 -242.733 0.638602 0.492212 0.576386 0.133023 
28 1 262.914 -12.3066 -245.937 0.604748 0.276267 0.614296 0.424968 
27 1 -4.56203 6.64271 -261.525 -0.0832696 0.594444 0.553911 0.576962 
25 1 488.61 2.19283 -266.734 0.474227 0.476847 0.739769 0.0216173 
30 1 -245.678 254.136 -245.518 0.718306 0.569066 -0.105396 0.386125 
31 1 -1.83685 250.304 -245.64 0.797527 0.25707 0.350058 0.418718 
32 1 262.713 243.49 -238.869 0.730088 0.258115 0.390137 0.498138 
29 1 494.661 258.289 -249.351 0.518576 0.316153 0.468937 0.641268 
17 1 -493.088 498.784 -253.655 0.0791648 0.424081 0.368848 0.82331 
19 1 7.41367 498.414 -246.541 0.430402 0.286525 0.455201 0.724879 
20 1 237.725 485.757 -253.097 0.618937 0.442844 0.191894 0.619663 
39 1 -1.61435 -253.345 -18.5007 0.643687 0.672941 0.250389 0.264808 
40 1 247.199 -262.95 0.43646 0.408432 0.280712 0.819022 0.289116 
37 1 494.129 -248.768 -7.23576 0.524235 0.349976 0.591493 0.502823 
34 1 -266.654 496.419 -1.05081 0.28915 0.0726871 0.169459 0.939358 
35 1 15.2378 490.902 -9.98338 0.373711 0.458806 0.450005 0.668829 
33 1 -494.794 -497.052 1.95076 0.399965 0.179319 0.087446 0.894554 
38 1 -246.868 -250.654 12.3878 0.759209 0.0561334 0.632031 0.144868 
36 1 250.941 485.955 10.8247 0.494672 0.782708 0.265678 0.268483 
1 1 -498.248 -487.869 494.506 0.872006 0.238467 0.424063 -0.0539499 
5 1 485.815 -234.126 498.205 0.630123 0.473825 0.578562 0.209049 
10 1 -236.93 -0.507063 492.985 0.183166 0.49448 0.483196 0.6989 
12 1 266.286 16.8068 496.084 0.621597 0.557597 0.494789 0.240597 
9 1 495.046 6.26959 485.992 0.309394 0.427385 0.615747 0.585212 
14 1 -250.55 249.195 482.147 0.588908 0.205023 0.388948 0.678139 
15 1 0.390624 254.199 493.439 0.196644 0.779981 0.126295 0.580526 
13 1 494.583 227.985 498.063 0.442386 -0.00507469 0.45101 0.775151 
3 1 -9.23182 489.763 489.101 0.688507 0.247789 0.233165 0.640463 
ITEM: TIMESTEP
90000
ITEM: NUMBER OF ATOMS
40
ITEM: BOX BOUNDS pp pp pp
-5.0000000000000000e+02 5.0000000000000000e+02
-5.0000000000000000e+02 5.0000000000000000e+02
-5.0000000000000000e+02 5.0000000000000000e+02
ITEM: ATOMS id type x y z c_q[1] c_q[2] c_q[3] c_q[4] 
2 1 -267.325 -498.945 -498.708 -0.0616516 0.690966 0.156078 0.703139 
6 1 -245.141 -257.282 -500.157 -0.0241826 0.577315 0.814538 -0.0514823 
7 1 1.24555 -263.556 -496.437 0.797088 0.356032 -0.0195153 0.48735 
8 1 248.923 -258.619 -489.321 0.689959 0.51306 0.430359 0.274802 
5 1 483.762 -235.246 -496.733 0.618785 0.467778 0.590283 0.223283 
16 1 255.121 232.641 -493.726 0.188603 0.403802 0.869367 0.213481 
4 1 268.266 485.386 -493.57 0.496492 0.681086 0.535965 0.0485715 
18 1 -254.055 -475.455 -239.927 0.423668 0.728484 0.219338 0.491637 
19 1 8.75154 -499.49 -248.274 0.450997 0.296446 0.40271 0.739287 
22 1 -252.771 -252.423 -237.309 0.0987097 0.97377 0.196055 0.0599296 
23 1 10.1636 -247.541 -251.961 0.837093 0.0400011 0.513596 0.184103 
24 1 253.76 -249.064 -255.2 0.499589 0.729561 0.181192 0.430489 
21 1 481.571 -244.218 -251.057 0.140624 0.668178 0.625312 0.377819 
26 1 -239.381 -3.42825 -245.663 0.630231 0.483002 0.596411 0.117528 
28 1 262.188 -17.0588 -247.152 0.5922 0.309491 0.644873 0.371017 
27 1 -0.243409 8.7543 -259.457 -0.0898145 0.630257 0.570609 0.518763 
25 1 494.337 3.13281 -270.263 0.446896 0.495366 0.744279 0.0307519 
30 1 -243.813 254.375 -245.183 0.715349 0.573521 -0.0442404 0.396726 
31 1 -2.6403 248.382 -252.136 0.789504 0.265707 0.338824 0.437358 
32 1 263.774 241.646 -234.065 0.743416 0.279017 0.385749 0.469765 
29 1 496.74 257.639 -248.77 0.507824 0.310539 0.468735 0.652662 
17 1 -489.817 500.102 -254.821 0.0497607 0.441974 0.376389 0.81272 
20 1 248.325 481.557 -251.275 0.582722 0.450081 0.120494 0.66584 
39 1 -0.459131 -245.573 -19.4969 0.684383 0.65292 0.21537 0.242758 
40 1 242.446 -266.768 -0.925206 0.428785 0.288141 0.814746 0.263264 
37 1 496.388 -249.683 -3.16359 0.519716 0.367217 0.584902 0.502927 
34 1 -266.686 493.241 -1.55151 0.275101 0.0536447 0.166989 0.945281 
35 1 9.51935 488.729 -15.4015 0.42486 0.503119 0.418949 0.625178 
33 1 -492.243 -497.948 2.28276 0.395488 0.161246 0.116088 0.896723 
38 1 -249.773 -252.79 10.6077 0.758204 0.0571942 0.631298 0.152703 
36 1 254.83 483.027 11.452 0.483495 0.791798 0.273678 0.253749 
1 1 -497.073 -489.014 490.449 0.863488 0.253102 0.431742 -0.062665 
9 1 -499.719 5.93033 490.241 0.311762 0.417919 0.611791 0.594861 
10 1 -237.325 -0.484896 490.832 0.178202 0.528027 0.485998 0.67323 
11 1 13.9013 16.8829 498.19 0.864031 0.410678 0.107188 0.270748 
12 1 274.715 13.2377 495.331 0.632807 0.559355 0.492952 0.208986 
14 1 -248.405 246.015 484.044 0.580029 0.19798 0.420724 0.668851 
15 1 -0.896839 250.534 489.474 0.220275 0.804874 0.103883 0.54117 
13 1 495.121 232.284 493.723 0.426311 0.0458749 0.451258 0.782637 
3 1 -6.44415 484.674 491.929 0.643926 0.255076 0.248615 0.677116 
ITEM: TIMESTEP
100000
ITEM: NUMBER OF ATOMS
40
ITEM: BOX BOUNDS pp pp pp
-5.0000000000000000e+02 5.0000000000000000e+02
-5.0000000000000000e+02 5.0000000000000000e+02
-5.0000000000000000e+02 5.0000000000000000e+02
ITEM: ATOMS id type x y z c_q[1] c_q[2] c_q[3] c_q[4] 
7 1 1.34008 -268.207 -498.229 0.792997 0.37852 -0.0258778 0.476664 
8 1 249.759 -255.505 -491.292 0.692672 0.47787 0.484175 0.239624 
5 1 487.997 -235.86 -494.802 0.609519 0.466195 0.609134 0.200261 
16 1 256.261 234.179 -489.292 0.194935 0.38363 0.880055 0.200826 
4 1 264.853 484.64 -498.717 0.442698 0.70201 0.557778 -0.00916504 
17 1 -496.394 -497.836 -251.739 0.0666142 0.469621 0.434367 0.765731 
18 1 -247.325 -473.999 -241.955 0.3969 0.720103 0.279752 0.495642 
19 1 6.09871 -499.612 -250.173 0.464739 0.28095 0.403132 0.736593 
22 1 -251.331 -255.043 -234.727 0.0597942 0.961325 0.241024 0.119108 