ITEM: TIMESTEP
0
ITEM: NUMBER OF ATOMS
15
ITEM: BOX BOUNDS
-500.000000 500.000000
-500.000000 500.000000
-500.000000 500.000000
ITEM: ATOMS id type x y z c_q[1] c_q[2] c_q[3] c_q[4]
1 1 -500.000000 -500.000000 -500.000000 0.291621 0.306168 0.540025 0.727730
2 1 -166.666667 -500.000000 -500.000000 0.257895 0.497042 0.155733 0.813748
3 1 166.666667 -500.000000 -500.000000 0.416162 0.527547 0.608427 0.422279
4 1 -500.000000 -166.666667 -500.000000 0.680016 0.291901 0.671851 0.031445
5 1 -166.666667 -166.666667 -500.000000 0.363433 0.703363 0.474490 0.384781
6 1 166.666667 -166.666667 -500.000000 0.569695 0.286259 0.126629 0.759913
7 1 -500.000000 166.666667 -500.000000 0.270506 0.847210 0.454690 0.048157
8 1 -166.666667 166.666667 -500.000000 0.583205 0.514423 0.298908 0.553077
9 1 166.666667 166.666667 -500.000000 0.690368 0.589677 0.409399 0.089811
10 1 -500.000000 -500.000000 -166.666667 0.263981 0.669522 0.633034 0.285171
11 1 -166.666667 -500.000000 -166.666667 0.086514 0.196057 0.739226 0.638452
12 1 166.666667 -500.000000 -166.666667 0.479966 0.301399 0.563346 0.601192
13 1 -500.000000 -166.666667 -166.666667 0.610609 0.674076 0.177965 0.375641
14 1 -166.666667 -166.666667 -166.666667 0.488284 0.420221 0.507036 0.572632
15 1 166.666667 -166.666667 -166.666667 0.769395 0.070186 0.369592 0.516243
