ITEM: TIMESTEP
0
ITEM: NUMBER OF ATOMS
15
ITEM: BOX BOUNDS pp pp pp
-5.0000000000000000e+02 5.0000000000000000e+02
-5.0000000000000000e+02 5.0000000000000000e+02
-5.0000000000000000e+02 5.0000000000000000e+02
ITEM: ATOMS id type x y z c_q[1] c_q[2] c_q[3] c_q[4] 
1 1 -500 -500 -500 0.291621 0.306168 0.540025 0.72773 
2 1 -166.667 -500 -500 0.257895 0.497042 0.155733 0.813748 
3 1 166.667 -500 -500 0.416162 0.527547 0.608427 0.422279 
4 1 -500 -166.667 -500 0.680016 0.291901 0.671851 0.031445 
5 1 -166.667 -166.667 -500 0.363433 0.703363 0.47449 0.384781 
6 1 166.667 -166.667 -500 0.569695 0.286259 0.126629 0.759913 
7 1 -500 166.667 -500 0.270506 0.84721 0.45469 0.048157 
8 1 -166.667 166.667 -500 0.583205 0.514423 0.298908 0.553077 
9 1 166.667 166.667 -500 0.690368 0.589677 0.409399 0.089811 
10 1 -500 -500 -166.667 0.263981 0.669522 0.633034 0.285171 
11 1 -166.667 -500 -166.667 0.086514 0.196057 0.739226 0.638452 
12 1 166.667 -500 -166.667 0.479966 0.301399 0.563346 0.601192 
13 1 -500 -166.667 -166.667 0.610609 0.674076 0.177965 0.375641 
14 1 -166.667 -166.667 -166.667 0.488284 0.420221 0.507036 0.572632 
15 1 166.667 -166.667 -166.667 0.769395 0.070186 0.369592 0.516243 
ITEM: TIMESTEP
10000
ITEM: NUMBER OF ATOMS
15
ITEM: BOX BOUNDS pp pp pp
-5.0000000000000000e+02 5.0000000000000000e+02
-5.0000000000000000e+02 5.0000000000000000e+02
-5.0000000000000000e+02 5.0000000000000000e+02
ITEM: ATOMS id type x y z c_q[1] c_q[2] c_q[3] c_q[4] 
1 1 -498.943 -493.906 -495.393 0.283157 0.315253 0.519187 0.742215 
4 1 -497.165 -165.955 -497.18 0.70523 0.311664 0.635321 0.0433954 
9 1 164.287 170.07 -499.574 0.68668 0.584955 0.407927 0.141046 
2 1 -166.786 499.237 -496.43 0.225994 0.503621 0.124398 0.824511 
12 1 162.201 -499.533 -172.256 0.453721 0.312062 0.578964 0.601295 
15 1 169.779 -175.023 -168.227 0.7609 0.0876928 0.351298 0.538452 
11 1 -161.758 -495.961 -166.005 0.130071 0.180583 0.743055 0.631142 
13 1 -498.037 -166.302 -165.689 0.580597 0.69415 0.200739 0.375189 
14 1 -161.672 -164.953 -166.387 0.512605 0.425871 0.488539 0.563205 
10 1 -499.873 499.484 -164.62 0.267013 0.679652 0.620606 0.2857 
3 1 166.747 -496.13 499.104 0.419462 0.555165 0.604927 0.387178 
5 1 -164.553 -171.719 496.509 0.383746 0.689904 0.474388 0.389522 
6 1 168.303 -168.068 498.308 0.561671 0.28628 0.0693176 0.773152 
7 1 -497.919 162.164 498.13 0.252676 0.875203 0.409825 0.0470876 
8 1 -169.171 165.965 493.588 0.557042 0.551299 0.325943 0.528711 
ITEM: TIMESTEP
20000
ITEM: NUMBER OF ATOMS
15
ITEM: BOX BOUNDS pp pp pp
-5.0000000000000000e+02 5.0000000000000000e+02
-5.0000000000000000e+02 5.0000000000000000e+02
-5.0000000000000000e+02 5.0000000000000000e+02
ITEM: ATOMS id type x y z c_q[1] c_q[2] c_q[3] c_q[4] 
1 1 -498.887 -485.044 -496.199 0.274636 0.335816 0.513749 0.740179 
3 1 173.122 -498.725 -498.304 0.419886 0.52318 0.612277 0.418444 
6 1 167.667 -172.725 -496.142 0.570708 0.276313 0.0191619 0.77303 
4 1 497.735 -165.423 -494.04 0.703431 0.299698 0.643298 0.0391619 
2 1 -164.262 493.671 499.923 0.229853 0.489455 0.135515 0.830203 
12 1 166.98 -498.299 -175.116 0.483713 0.306726 0.544425 0.612815 
14 1 -162.889 -168.536 -168.745 0.513228 0.438962 0.476425 0.562965 
15 1 166.796 -174.986 -167.457 0.738417 0.124356 0.315947 0.582627 
11 1 -164.037 -495.508 -163.326 0.121982 0.112772 0.753998 0.635523 
10 1 496.872 -500.068 -164.788 0.287507 0.671461 0.616039 0.294918 
13 1 495.235 -165.81 -164.831 0.564201 0.695393 0.189377 0.402792 
5 1 -165.487 -171.443 499.373 0.415511 0.656135 0.507215 0.373591 
7 1 -494.781 160.457 495.425 0.268597 0.879125 0.391717 0.0394033 
8 1 -170.57 169.324 494.214 0.554277 0.565927 0.292341 0.535762 
9 1 160.809 171.064 498.131 0.703 0.571161 0.413615 0.092136 
ITEM: TIMESTEP
30000
ITEM: NUMBER OF ATOMS
15
ITEM: BOX BOUNDS pp pp pp
-5.0000000000000000e+02 5.0000000000000000e+02
-5.0000000000000000e+02 5.0000000000000000e+02
-5.0000000000000000e+02 5.0000000000000000e+02
ITEM: ATOMS id type x y z c_q[1] c_q[2] c_q[3] c_q[4] 
1 1 -496.793 -485.94 -489.824 0.298433 0.35365 0.515167 0.721438 
6 1 170.369 -177.039 -494.035 0.51843 0.266474 0.00800678 0.812501 
4 1 495.81 -172.422 -495.295 0.694339 0.31913 0.644989 0.00627187 
2 1 -167.735 492.136 -498.134 0.15934 0.454232 0.112592 0.869257 
3 1 171.065 500.493 -499.002 0.371763 0.579805 0.601208 0.405176 
10 1 496.745 -496.702 -172.572 0.328595 0.702103 0.554456 0.302746 
14 1 -163.673 -169.398 -168.229 0.55803 0.463683 0.448077 0.522329 
15 1 170.132 -178.284 -169.545 0.751825 0.137914 0.310629 0.565021 
12 1 167.338 495.207 -176.636 0.470436 0.307642 0.537339 0.628739 
13 1 492.202 -165.858 -164.862 0.566388 0.679542 0.239531 0.400066 
11 1 -166.406 497.896 -167.069 0.110782 0.0621055 0.758597 0.639062 
5 1 -169.867 -176.498 498.115 0.382519 0.68091 0.510002 0.36047 
7 1 -492.547 158.626 496.206 0.267604 0.884307 0.382063 0.0204442 
8 1 -171.433 177.773 493.941 0.560286 0.56314 0.296111 0.53035 
9 1 165.357 168.638 499.719 0.695145 0.565576 0.440695 0.0518217 
ITEM: TIMESTEP
40000
ITEM: NUMBER OF ATOMS
15
ITEM: BOX BOUNDS pp pp pp
-5.0000000000000000e+02 5.0000000000000000e+02
-5.0000000000000000e+02 5.0000000000000000e+02
-5.0000000000000000e+02 5.0000000000000000e+02
ITEM: ATOMS id type x y z c_q[1] c_q[2] c_q[3] c_q[4] 
1 1 -498.304 -489.319 -491.217 0.293121 0.374427 0.502009 0.722407 
3 1 169.107 499.798 -499.112 0.321619 0.591793 0.627323 0.390906 
6 1 168.609 -174.461 -491.918 0.494037 0.273662 0.0322926 0.824617 
4 1 498.168 -172.328 -488.472 0.679236 0.299057 0.670139 -0.010818 
2 1 -171.364 490.447 -498.635 0.0677646 0.469935 0.1248 0.871203 
10 1 499.237 -495.72 -168.778 0.355536 0.682239 0.565119 0.297968 
11 1 -168.255 -494.291 -174.564 0.13928 0.0819547 0.753014 0.637851 
14 1 -165.972 -170.355 -167.415 0.551013 0.457039 0.467898 0.518239 
15 1 172.685 -179.656 -176.263 0.763666 0.130806 0.269697 0.57181 
12 1 168.52 498.66 -173.673 0.470316 0.350813 0.536917 0.606179 
13 1 489.998 -165.733 -161.173 0.539236 0.67342 0.243006 0.443484 
5 1 -176.203 -175.538 489.994 0.361878 0.671897 0.540661 0.353955 
7 1 -491.885 157.04 492.366 0.242014 0.895388 0.373475 0.0150544 
8 1 -174.914 175.74 495.534 0.531994 0.575459 0.269645 0.559572 
9 1 166.936 169.97 498.861 0.686135 0.555383 0.464395 0.0714565 
ITEM: TIMESTEP
50000
ITEM: NUMBER OF ATOMS
15
ITEM: BOX BOUNDS pp pp pp
-5.0000000000000000e+02 5.0000000000000000e+02
-5.0000000000000000e+02 5.0000000000000000e+02
-5.0000000000000000e+02 5.0000000000000000e+02
ITEM: ATOMS id type x y z c_q[1] c_q[2] c_q[3] c_q[4] 
1 1 -497.565 -495.61 -490.401 0.277283 0.429801 0.532933 0.674068 
4 1 -500.273 -174.325 -490.099 0.658292 0.294928 0.691687 -0.0352025 
6 1 168.792 -171.814 -490.07 0.503409 0.283104 0.0649801 0.813762 
9 1 161.584 169.632 -495.69 0.692107 0.562779 0.442783 0.090613 
2 1 -170.073 493.418 -496.934 0.114319 0.508929 0.0674775 0.850511 
3 1 169.004 497.806 -498.615 0.29016 0.592801 0.633226 0.404252 
11 1 -168.8 -488.896 -177.026 0.123228 0.0494821 0.746921 0.651518 
10 1 495.592 -492.183 -174.184 0.361897 0.632442 0.609861 0.311635 
15 1 168.555 -180.017 -173.96 0.730603 0.18235 0.2764 0.597135 
12 1 174.801 494.529 -172.527 0.458774 0.358783 0.557201 0.591885 
13 1 489.716 -169.359 -161.834 0.529105 0.683582 0.235754 0.444053 
14 1 -162.545 -165.775 -164.317 0.517277 0.460837 0.496503 0.52301 
5 1 -182.519 -174.377 495.234 0.351686 0.635495 0.60241 0.331006 
7 1 -489.441 155.234 488.145 0.22702 0.898049 0.37655 -0.0134096 
8 1 -171.913 178.342 494.01 0.542455 0.522821 0.287005 0.591632 
ITEM: TIMESTEP
60000
ITEM: NUMBER OF ATOMS
15
ITEM: BOX BOUNDS pp pp pp
-5.0000000000000000e+02 5.0000000000000000e+02
-5.0000000000000000e+02 5.0000000000000000e+02
-5.0000000000000000e+02 5.0000000000000000e+02
ITEM: ATOMS id type x y z c_q[1] c_q[2] c_q[3] c_q[4] 
1 1 -491.287 -498.701 -488.883 0.237697 0.464396 0.563254 0.640766 
6 1 170.771 -177.511 -486.703 0.482036 0.28731 0.0914183 0.82264 
4 1 498.527 -175.408 -493.989 0.669839 0.289851 0.683594 0.00103631 
2 1 -168.178 491.371 -496.458 0.13933 0.458398 0.0787034 0.874222 
11 1 -170.156 -490.338 -178.532 0.173974 -0.0026766 0.739194 0.650628 
10 1 495.728 -490.05 -177.298 0.345797 0.652201 0.579938 0.344571 
15 1 171.427 -180.675 -173.719 0.702996 0.172273 0.268721 0.635537 
12 1 169.374 495.458 -169.594 0.487995 0.385171 0.549089 0.558574 
14 1 -163.112 -168.72 -157.862 0.51283 0.46289 0.481409 0.539429 
13 1 494.913 -168.313 -158.132 0.543646 0.670082 0.223877 0.45312 
5 1 -184.757 -171.021 495.928 0.352796 0.649146 0.587695 0.329785 
7 1 -488.437 158.438 484.348 0.254939 0.901814 0.34881 -0.00830223 
9 1 165.188 164.16 496.924 0.704775 0.566058 0.402899 0.143325 
8 1 -171.202 181.094 494.864 0.548128 0.529147 0.292499 0.57793 
3 1 174.053 499.068 499.32 0.308385 0.547843 0.648404 0.429348 
ITEM: TIMESTEP
70000
ITEM: NUMBER OF ATOMS
15
ITEM: BOX BOUNDS pp pp pp
-5.0000000000000000e+02 5.0000000000000000e+02
-5.0000000000000000e+02 5.0000000000000000e+02
-5.0000000000000000e+02 5.0000000000000000e+02
ITEM: ATOMS id type x y z c_q[1] c_q[2] c_q[3] c_q[4] 
1 1 -487.241 -494.941 -484.348 0.288547 0.467729 0.557724 0.622024 
4 1 -498.671 -173.388 -492.091 0.644014 0.292832 0.706275 0.0258913 
6 1 171.555 -176.884 -488.016 0.487565 0.353162 0.0918622 0.79317 
2 1 -170.055 491.133 -498.484 0.142049 0.4665 0.11488 0.865449 
10 1 -499.713 -486.139 -177.569 0.375503 0.632525 0.606993 0.300781 
11 1 -171.052 -490.22 -172.755 0.1845 0.0389472 0.747929 0.636432 
15 1 173.192 -174.529 -173.084 0.663463 0.14586 0.268722 0.682884 
12 1 163.494 493.877 -171.74 0.544906 0.43441 0.510676 0.503562 
14 1 -161.761 -171.505 -158.312 0.518681 0.429446 0.516954 0.528493 
13 1 499.362 -170.909 -160.732 0.566664 0.679687 0.198225 0.421455 
5 1 -186.447 -171.675 496.571 0.322507 0.660142 0.616266 0.28358 
7 1 -485.979 155.664 485.474 0.236053 0.901159 0.362958 -0.0212928 
8 1 -170.397 180.385 490.527 0.535404 0.473896 0.338136 0.611906 
9 1 160.479 167.664 495.368 0.726412 0.553885 0.364873 0.18001 
3 1 171.591 496.617 499.826 0.28396 0.558536 0.652106 0.426805 
ITEM: TIMESTEP
80000
ITEM: NUMBER OF ATOMS
15
ITEM: BOX BOUNDS pp pp pp
-5.0000000000000000e+02 5.0000000000000000e+02
-5.0000000000000000e+02 5.0000000000000000e+02
-5.0000000000000000e+02 5.0000000000000000e+02
ITEM: ATOMS id type x y z c_q[1] c_q[2] c_q[3] c_q[4] 
1 1 -487.67 -496.334 -485.498 0.233738 0.45897 0.569875 0.640278 
6 1 170.303 -174.762 -487.259 0.48007 0.404947 0.109466 0.770433 
4 1 498.262 -172.52 -489.509 0.666614 0.315938 0.674731 -0.0233725 
2 1 -166.618 491.9 -498.572 0.204986 0.496162 0.152446 0.829798 
3 1 168.961 495.504 -498.185 0.273465 0.56223 0.646061 0.437858 
11 1 -170.566 -492.385 -169.095 0.233642 -0.0108792 0.74039 0.630171 
10 1 499.528 -483.608 -169.852 0.351522 0.651265 0.616376 0.269011 
15 1 172.564 -176.714 -176.444 0.642333 0.154603 0.220986 0.717406 
12 1 166.933 492.059 -170.184 0.58684 0.447183 0.479456 0.47515 
14 1 -159.926 -174.839 -159.853 0.510606 0.405114 0.544605 0.527798 
13 1 497.715 -174.005 -163.12 0.541892 0.72466 0.167697 0.391279 
5 1 -188.297 -173.401 496.25 0.327563 0.64166 0.628429 0.293347 
7 1 -481.14 155.847 486.143 0.192366 0.926751 0.321486 -0.0278339 
8 1 -177.5 179.077 485.916 0.573754 0.412782 0.327513 0.627019 
9 1 163.576 168.307 494.085 0.712657 0.555159 0.392386 0.173067 
ITEM: TIMESTEP
90000
ITEM: NUMBER OF ATOMS
15
ITEM: BOX BOUNDS pp pp pp
-5.0000000000000000e+02 5.0000000000000000e+02
-5.0000000000000000e+02 5.0000000000000000e+02
-5.0000000000000000e+02 5.0000000000000000e+02
ITEM: ATOMS id type x y z c_q[1] c_q[2] c_q[3] c_q[4] 
1 1 -483.168 -493.823 -483.381 0.172401 0.504 0.567966 0.627436 
4 1 -499.818 -170.815 -490.286 0.646336 0.333155 0.685797 -0.0306672 
6 1 175.338 -172.646 -493.261 0.477029 0.433807 0.121198 0.754696 
11 1 -175.526 -491.593 -168.835 0.214524 0.0168309 0.782031 0.584913 
10 1 497.058 -479.734 -166.721 0.352142 0.671236 0.594031 0.269379 
15 1 175.795 -182.963 -178.395 0.61582 0.178627 0.258092 0.722666 
14 1 -159.264 -172.089 -162.575 0.495353 0.419997 0.571231 0.50192 
13 1 496.16 -171.92 -163.923 0.51865 0.731374 0.189716 0.400129 
12 1 162.913 489.382 -164.679 0.580041 0.423335 0.489043 0.495152 
5 1 -187.973 -173.76 496.045 0.346613 0.619896 0.630177 0.313792 
7 1 -478.006 154.504 486.718 0.196145 0.942098 0.263693 -0.0666698 
8 1 -180.457 181.871 478.765 0.614641 0.4241 0.331698 0.576483 
9 1 162.891 171.181 490.8 0.719613 0.524228 0.409279 0.199584 
2 1 -162.502 494.636 -500.07 0.167639 0.465337 0.13996 0.85777 
3 1 167.272 490.298 497.557 0.268004 0.532354 0.669236 0.443729 
ITEM: TIMESTEP
100000
ITEM: NUMBER OF ATOMS
15
ITEM: BOX BOUNDS pp pp pp
-5.0000000000000000e+02 5.0000000000000000e+02
-5.0000000000000000e+02 5.0000000000000000e+02
-5.0000000000000000e+02 5.0000000000000000e+02
ITEM: ATOMS id type x y z c_q[1] c_q[2] c_q[3] c_q[4] 
1 1 -489.196 -490.981 -487.532 0.19511 0.512427 0.558224 0.622685 
6 1 177.064 -175.007 -490.642 0.459872 0.448071 0.106299 0.759243 
4 1 498.143 -167.405 -485.659 0.64579 0.326452 0.683783 -0.0939402 
11 1 -170.426 -493.782 -166.716 0.301469 0.0234264 0.742833 0.5973 
15 1 170.854 -185.16 -177.058 0.584118 0.199324 0.289579 0.731587 
10 1 -499.517 -482.579 -166.295 0.276949 0.727632 0.600085 0.183708 
14 1 -163.408 -173.376 -162.103 0.475843 0.430463 0.54712 0.537527 
13 1 496.782 -173.35 -164.253 0.501746 0.702495 0.202948 0.46213 
12 1 159.779 487.41 -161.59 0.591777 0.38726 0.483016 0.51626 
5 1 -187.039 -175.34 498.867 0.371649 0.64448 0.600915 0.292275 
7 1 -473.364 154.292 490.378 0.215442 0.945186 0.243701 -0.0286068 
8 1 -181.595 181.642 477.012 0.603023 0.433538 0.32803 0.583784 
9 1 164.985 169.655 492.516 0.704399 0.557253 0.401482 0.179175 
2 1 -163.22 496.009 497.576 0.120369 0.467853 0.15012 0.862606 
3 1 167.948 484.991 494.397 0.240858 0.549071 0.672691 0.433585 
ITEM: TIMESTEP
110000
ITEM: NUMBER OF ATOMS
15
ITEM: BOX BOUNDS pp pp pp
-5.0000000000000000e+02 5.0000000000000000e+02
-5.0000000000000000e+02 5.0000000000000000e+02
-5.0000000000000000e+02 5.0000000000000000e+02
ITEM: ATOMS id type x y z c_q[1] c_q[2] c_q[3] c_q[4] 
1 1 -493.041 -491.68 -488.201 0.171932 0.520152 0.509024 0.66391 
6 1 176.697 -176.8 -497.034 0.441795 0.442692 0.129978 0.769381 
4 1 493.495 -171.092 -482.483 0.665612 0.319614 0.673378 -0.0370156 
15 1 169.385 -185.693 -172.78 0.618416 0.219976 0.274428 0.702753 
11 1 -171.227 -497.916 -162.663 0.311196 0.0502456 0.736709 0.598241 
10 1 496.347 -482.787 -165.528 0.250833 0.766431 0.564984 0.174523 
14 1 -159.966 -174.63 -162.631 0.428101 0.456551 0.569897 0.532454 
13 1 494.16 -171.619 -165.583 0.487098 0.706971 0.211195 0.467252 
12 1 156.68 487.505 -164.011 0.607409 0.362021 0.432784 0.55919 
5 1 -190.022 -176.201 499.3 0.32971 0.63809 0.625581 0.3046 
7 1 -473.285 156.839 487.237 0.209154 0.94995 0.231466 0.0165153 
8 1 -180.431 177.398 475.48 0.601963 0.415766 0.324181 0.599739 
9 1 172.403 169.105 494.501 0.685706 0.536047 0.435158 0.230431 
2 1 -161.708 496.52 493.832 0.0658539 0.466501 0.123485 0.87338 
3 1 171.465 481.465 497.352 0.255936 0.603334 0.638444 0.403577 
ITEM: TIMESTEP
120000
ITEM: NUMBER OF ATOMS
15
ITEM: BOX BOUNDS pp pp pp
-5.0000000000000000e+02 5.0000000000000000e+02
-5.0000000000000000e+02 5.0000000000000000e+02
-5.0000000000000000e+02 5.0000000000000000e+02
ITEM: ATOMS id type x y z c_q[1] c_q[2] c_q[3] c_q[4] 
1 1 -488.575 -489.215 -483.128 0.180863 0.507552 0.504256 0.674837 
6 1 174.178 -179.295 -497.099 0.398287 0.417748 0.12159 0.807508 
4 1 492.814 -173.378 -484.596 0.689746 0.323816 0.646852 -0.0312476 
15 1 169.356 -183.687 -174.871 0.617324 0.280587 0.238598 0.695164 
11 1 -169.09 -499.861 -162.006 0.323822 0.0184501 0.740816 0.588209 
10 1 497.924 -483.224 -163.044 0.27318 0.755086 0.561262 0.200507 
14 1 -158.473 -180.714 -165.176 0.450387 0.431866 0.572842 0.531503 
13 1 498.418 -170.455 -164.958 0.460764 0.72963 0.211557 0.45889 
12 1 153.394 489.832 -163.38 0.601884 0.351733 0.422193 0.579459 
5 1 -188.017 -180.154 495.415 0.316982 0.619634 0.650772 0.303434 
7 1 -475.816 153.609 488.743 0.26119 0.93852 0.21808 0.0583245 
9 1 173.047 165.466 490.839 0.709792 0.523053 0.416555 0.221569 
8 1 -185.791 178.158 468.059 0.605182 0.376682 0.323171 0.622435 
2 1 -155.467 495.886 497.206 0.037611 0.479963 0.141921 0.864916 
3 1 169.765 482.63 496.724 0.266722 0.589345 0.633343 0.424744 
ITEM: TIMESTEP
130000
ITEM: NUMBER OF ATOMS
15
ITEM: BOX BOUNDS pp pp pp
-5.0000000000000000e+02 5.0000000000000000e+02
-5.0000000000000000e+02 5.0000000000000000e+02
-5.0000000000000000e+02 5.0000000000000000e+02
ITEM: ATOMS id type x y z c_q[1] c_q[2] c_q[3] c_q[4] 
1 1 -489.765 -490.333 -478.897 0.212024 0.480055 0.493644 0.693476 
6 1 174.871 -178.775 -496.855 0.378914 0.41061 0.141185 0.817246 
4 1 494.507 -174.125 -480.65 0.649815 0.31653 0.688251 -0.0621277 
14 1 -151.449 -184.651 -168.345 0.471391 0.469027 0.563352 0.490345 
15 1 166.126 -182.511 -174.745 0.535353 0.264692 0.254288 0.760705 
10 1 496.254 -484.03 -164.776 0.300773 0.757249 0.547337 0.191134 
13 1 496.117 -170.507 -163.751 0.434156 0.71591 0.27608 0.471975 
11 1 -170.656 497.63 -157.439 0.32044 -0.0586182 0.741806 0.58618 
12 1 152.499 488.642 -160.338 0.610596 0.329107 0.404908 0.595744 
5 1 -190.371 -178.633 497.863 0.301758 0.601775 0.65903 0.335392 
7 1 -478.368 160.065 494.24 0.23567 0.948705 0.210307 0.0137321 
9 1 173.528 161.513 491 0.703256 0.521369 0.432269 0.216216 
8 1 -180.396 176.415 466.726 0.611316 0.349279 0.316486 0.635715 
2 1 -153.82 493.25 494.837 0.0227442 0.475999 0.162318 0.864037 
3 1 171.162 477.968 492.431 0.252525 0.527215 0.674106 0.451505 
ITEM: TIMESTEP
140000
ITEM: NUMBER OF ATOMS
15
ITEM: BOX BOUNDS pp pp pp
-5.0000000000000000e+02 5.0000000000000000e+02
-5.0000000000000000e+02 5.0000000000000000e+02
-5.0000000000000000e+02 5.0000000000000000e+02
ITEM: ATOMS id type x y z c_q[1] c_q[2] c_q[3] c_q[4] 
1 1 -485.982 -486.48 -482.063 0.195221 0.51058 0.492224 0.677431 
5 1 -193.311 -180.04 499.632 0.292656 0.581481 0.683869 0.329478 
6 1 176.223 -177.278 -491.985 0.406956 0.408024 0.193261 0.794074 
4 1 491.203 -174.876 -475.871 0.666845 0.342612 0.659839 -0.0504581 
14 1 -148.824 -184.979 -167.093 0.454285 0.486205 0.544249 0.510905 
15 1 172.125 -186.731 -173.074 0.529662 0.242252 0.277469 0.764057 
10 1 494.405 -487.447 -164.311 0.263062 0.739347 0.593288 0.179369 
13 1 -499.957 -165.158 -167.385 0.416487 0.700673 0.29174 0.500484 
11 1 -173.753 498.966 -158.387 0.358198 -0.0334568 0.749321 0.555961 
12 1 149.127 487.954 -159.604 0.607485 0.338561 0.403523 0.594565 
7 1 -476.352 159.493 491.422 0.22347 0.9497 0.217709 -0.0270923 
9 1 175.229 160.819 488.603 0.690352 0.52562 0.453306 0.204087 
8 1 -179.817 170.579 467.63 0.648463 0.352231 0.324766 0.591571 
2 1 -156.423 494.757 498.56 0.0395539 0.480317 0.159078 0.861641 
3 1 167.923 474.974 490.934 0.307305 0.528577 0.677607 0.408679 
ITEM: TIMESTEP
150000
ITEM: NUMBER OF ATOMS
15
ITEM: BOX BOUNDS pp pp pp
-5.0000000000000000e+02 5.0000000000000000e+02
-5.0000000000000000e+02 5.0000000000000000e+02
-5.0000000000000000e+02 5.0000000000000000e+02
ITEM: ATOMS id type x y z c_q[1] c_q[2] c_q[3] c_q[4] 
1 1 -489.765 -487.477 -479.954 0.203034 0.530286 0.462961 0.680618 
5 1 -197.721 -179.828 -496.754 0.243824 0.616902 0.688063 0.294196 
6 1 176.337 -174.265 -490.441 0.391892 0.426783 0.238287 0.779421 
4 1 484.737 -174.226 -473.569 0.649484 0.326718 0.684901 -0.0483369 
15 1 172.432 -183.588 -170.971 0.530078 0.24885 0.255767 0.769204 
13 1 500.015 -164.991 -170.25 0.45925 0.704017 0.250167 0.480485 
11 1 -174.48 -498.742 -161.87 0.329587 -0.0376605 0.770364 0.544512 
10 1 490.171 -485.65 -162.903 0.290963 0.710434 0.61813 0.168936 
14 1 -148.022 -179.979 -164.548 0.433497 0.500145 0.520151 0.539795 
12 1 147.383 493.614 -157 0.645735 0.344313 0.370824 0.571808 
7 1 -472.038 158.493 490.724 0.204538 0.961582 0.174257 -0.0561942 
9 1 172.297 166.589 489.395 0.703859 0.555613 0.399819 0.189793 
8 1 -185.349 170.466 465.314 0.67908 0.342413 0.290692 0.580604 
2 1 -158.204 498.484 498.321 0.0262841 0.52122 0.201342 0.828915 
3 1 168.541 473.96 491.976 0.315492 0.521887 0.670969 0.421781 
ITEM: TIMESTEP
160000
ITEM: NUMBER OF ATOMS
15
ITEM: BOX BOUNDS pp pp pp
-5.0000000000000000e+02 5.0000000000000000e+02
-5.0000000000000000e+02 5.0000000000000000e+02
-5.0000000000000000e+02 5.0000000000000000e+02
ITEM: ATOMS id type x y z c_q[1] c_q[2] c_q[3] c_q[4] 
1 1 -489.62 -487.642 -484.894 0.18603 0.506449 0.502202 0.675792 
5 1 -196.62 -180.048 -494.916 0.240077 0.625937 0.661954 0.335235 
6 1 176.844 -179.255 -484.915 0.418624 0.439784 0.21384 0.765256 
4 1 478.232 -177.171 -475.098 0.605771 0.366486 0.702534 -0.0719405 
11 1 -170.521 -499.701 -168.861 0.415337 0.00904237 0.761006 0.49828 
13 1 -495.817 -167.352 -171.683 0.458195 0.692526 0.288202 0.47687 
15 1 168.354 -191.347 -174.489 0.566843 0.261254 0.234298 0.745345 
10 1 484.12 -487.154 -165.066 0.257157 0.696529 0.649331 0.164583 
14 1 -146.132 -179.474 -165.114 0.431174 0.493474 0.516475 0.551204 
12 1 144.984 486.773 -159.771 0.649624 0.36566 0.412612 0.523481 
7 1 -476.068 160.744 493.682 0.196392 0.959844 0.198494 -0.0270146 
9 1 170.502 165.749 488.815 0.680865 0.558105 0.437237 0.183756 
8 1 -189.102 171.529 462.761 0.670536 0.338709 0.322742 0.575756 
2 1 -161.441 498.352 499.736 0.035576 0.495931 0.238612 0.834177 
3 1 174.904 471.726 488.707 0.300375 0.514612 0.687354 0.415323 
ITEM: TIMESTEP
170000
ITEM: NUMBER OF ATOMS
15
ITEM: BOX BOUNDS pp pp pp
-5.0000000000000000e+02 5.0000000000000000e+02
-5.0000000000000000e+02 5.0000000000000000e+02
-5.0000000000000000e+02 5.0000000000000000e+02
ITEM: ATOMS id type x y z c_q[1] c_q[2] c_q[3] c_q[4] 
1 1 -486.694 -486.39 -480.835 0.20457 0.511045 0.49593 0.671593 
5 1 -197.052 -189.024 -491.53 0.269681 0.633469 0.623043 0.371223 
6 1 174.576 -183.371 -483.404 0.418743 0.475784 0.215061 0.742989 
4 1 481.878 -176.402 -476.23 0.616305 0.387202 0.682989 -0.0613832 
2 1 -162.124 494.6 -498.888 0.0449414 0.445778 0.246036 0.859493 
15 1 168.453 -192.742 -173.013 0.570046 0.297288 0.192699 0.741306 
13 1 -499.089 -165.25 -175.828 0.422188 0.679285 0.306568 0.516086 
11 1 -171.286 498.788 -171.419 0.428946 -0.00352665 0.73049 0.531392 
10 1 483.536 -487.85 -160.221 0.249854 0.720515 0.63214 0.137227 
14 1 -148.105 -181.992 -161.962 0.406871 0.468125 0.536706 0.572068 
12 1 142.292 488.054 -153.833 0.679744 0.367434 0.386309 0.503693 
7 1 -483.083 156.797 499.383 0.181976 0.964585 0.190459 -0.0136337 
8 1 -194.343 170.646 458.766 0.649997 0.348341 0.340865 0.583072 
9 1 171.076 171.642 492.667 0.678746 0.572982 0.442859 0.121951 
3 1 171.841 472.092 493.468 0.317662 0.52817 0.681368 0.394798 
ITEM: TIMESTEP
180000
ITEM: NUMBER OF ATOMS
15
ITEM: BOX BOUNDS pp pp pp
-5.0000000000000000e+02 5.0000000000000000e+02
-5.0000000000000000e+02 5.0000000000000000e+02
-5.0000000000000000e+02 5.0000000000000000e+02
ITEM: ATOMS id type x y z c_q[1] c_q[2] c_q[3] c_q[4] 
1 1 -489.822 -483.555 -485.107 0.161955 0.473026 0.490857 0.713496 
5 1 -189.874 -190.549 -493.746 0.269702 0.639839 0.603763 0.391583 
6 1 173.896 -179.648 -484.59 0.492709 0.460155 0.2325 0.701027 
4 1 480.193 -177.279 -469.83 0.648442 0.333883 0.684121 -0.00482541 
2 1 -152.879 495.255 -495.41 0.0786127 0.387653 0.253441 0.882787 
11 1 -172.102 -495.281 -170.215 0.405677 0.0225274 0.721111 0.561176 
15 1 164.647 -193.75 -174.776 0.585395 0.24012 0.201097 0.747806 
13 1 -496.166 -161.512 -175.938 0.422448 0.663274 0.284744 0.548203 
10 1 485.59 -488.042 -157.545 0.278287 0.719165 0.628967 0.0987845 
14 1 -156.065 -183.832 -162.975 0.389356 0.433981 0.542139 0.605102 
12 1 138.377 485.87 -154.715 0.679205 0.388398 0.351273 0.514233 
7 1 -478.525 153.14 496.724 0.157179 0.944562 0.276039 -0.0830683 
9 1 169.821 167.486 489.255 0.687473 0.558115 0.454009 0.0988164 
8 1 -191.841 171.322 459.631 0.622579 0.363193 0.342281 0.602769 
3 1 171.587 477.398 490.397 0.303799 0.534637 0.706657 0.350009 
ITEM: TIMESTEP
190000
ITEM: NUMBER OF ATOMS
15
ITEM: BOX BOUNDS pp pp pp
-5.0000000000000000e+02 5.0000000000000000e+02
-5.0000000000000000e+02 5.0000000000000000e+02
-5.0000000000000000e+02 5.0000000000000000e+02
ITEM: ATOMS id type x y z c_q[1] c_q[2] c_q[3] c_q[4] 
1 1 -492.026 -488.215 -490.892 0.184868 0.493371 0.442837 0.725469 
5 1 -185.918 -186.703 -496.736 0.249984 0.62915 0.628856 0.382387 
6 1 173.598 -179.441 -479.308 0.446069 0.463815 0.270733 0.715962 
4 1 476.102 -177.537 -468.4 0.670897 0.31401 0.671019 -0.0320511 
2 1 -149.974 493.979 -498.272 0.0245598 0.376607 0.274148 0.884538 
11 1 -174.499 -490.49 -170.932 0.418219 0.0220214 0.71205 0.563554 
15 1 167.264 -192.637 -173.196 0.618732 0.21258 0.157691 0.739671 
13 1 -495.036 -159.003 -168.41 0.419219 0.66558 0.342849 0.51353 
10 1 480.846 -496.453 -157.84 0.238327 0.73409 0.619516 0.143216 
14 1 -155.729 -184.532 -165.203 0.366584 0.382719 0.576978 0.621481 
12 1 142.001 483.647 -153.475 0.694725 0.374342 0.368246 0.491549 
7 1 -476.665 152.923 498.613 0.120664 0.922861 0.350477 -0.104566 
9 1 168.134 162.611 490.919 0.694064 0.507883 0.502965 0.0857651 
8 1 -191.347 171.965 454.443 0.615666 0.372175 0.328373 0.612056 
3 1 169.21 480.253 490.371 0.265219 0.552487 0.702868 0.361102 
ITEM: TIMESTEP
200000
ITEM: NUMBER OF ATOMS
15
ITEM: BOX BOUNDS pp pp pp
-5.0000000000000000e+02 5.0000000000000000e+02
-5.0000000000000000e+02 5.0000000000000000e+02
-5.0000000000000000e+02 5.0000000000000000e+02
ITEM: ATOMS id type x y z c_q[1] c_q[2] c_q[3] c_q[4] 
1 1 -495.108 -484.596 -488.321 0.182493 0.466065 0.430799 0.750928 
6 1 175.516 -174.711 -475.054 0.467143 0.457315 0.231322 0.720507 
4 1 476.023 -183.149 -471.256 0.662684 0.285686 0.69055 -0.0487387 
2 1 -146.272 489.467 -495.59 0.0223171 0.383151 0.266303 0.884183 
11 1 -176.929 -493.179 -176.657 0.416182 -0.00711043 0.71608 0.560332 
15 1 167.536 -188.819 -174.831 0.651054 0.193096 0.133195 0.721874 
10 1 479.763 -496.913 -160.024 0.210982 0.739319 0.626882 0.126146 
14 1 -158.579 -185.653 -163.927 0.356857 0.375621 0.573166 0.634857 
13 1 -497.846 -161.648 -164.029 0.439479 0.648971 0.378568 0.492322 
12 1 134.128 482.433 -156.489 0.697229 0.374857 0.322004 0.519295 
5 1 -187.349 -184.878 495.903 0.291049 0.628932 0.636623 0.338299 
7 1 -476.054 149.103 493.76 0.144938 0.912203 0.367444 -0.108918 
9 1 170.191 159.435 487.713 0.692943 0.506494 0.507908 0.0729543 
8 1 -190.36 169.955 453.915 0.621881 0.364741 0.303093 0.623188 
3 1 170.273 479.208 492.61 0.236819 0.539354 0.723542 0.359864 
ITEM: TIMESTEP
210000
ITEM: NUMBER OF ATOMS
15
ITEM: BOX BOUNDS pp pp pp
-5.0000000000000000e+02 5.0000000000000000e+02
-5.0000000000000000e+02 5.0000000000000000e+02
-5.0000000000000000e+02 5.0000000000000000e+02
ITEM: ATOMS id type x y z c_q[1] c_q[2] c_q[3] c_q[4] 
1 1 -491.661 -484.282 -488.772 0.213982 0.51966 0.377894 0.735773 
6 1 172.003 -172.651 -477.142 0.472247 0.495395 0.217942 0.69575 
4 1 475.907 -185.516 -469.599 0.688559 0.316507 0.649917 -0.0576052 
2 1 -143.092 485.204 -496.355 -0.00694476 0.423351 0.28675 0.85936 
11 1 -172.6 -491.917 -172.753 0.362394 -0.031 0.736717 0.57005 
15 1 159.341 -185.576 -175.82 0.625028 0.228514 0.143493 0.732483 
10 1 481.02 -494.116 -163.554 0.169853 0.717148 0.66413 0.125616 
14 1 -159.837 -189.865 -164.57 0.377271 0.379679 0.516661 0.66826 
13 1 -499.72 -165.713 -160.205 0.477122 0.622701 0.369502 0.498062 
12 1 136.433 486.878 -158.574 0.681868 0.394131 0.387433 0.479178 
5 1 -190.932 -186.459 493.371 0.24431 0.637246 0.640136 0.352783 
7 1 -477.548 147.943 496.588 0.142272 0.888349 0.396516 -0.182672 
9 1 174.312 156.154 488.931 0.711581 0.510613 0.475235 0.0841343 
8 1 -188.898 167.245 454.11 0.669753 0.34513 0.284253 0.592888 
3 1 166.054 479.33 495.43 0.219867 0.542813 0.716556 0.378894 
ITEM: TIMESTEP
220000
ITEM: NUMBER OF ATOMS
15
ITEM: BOX BOUNDS pp pp pp
-5.0000000000000000e+02 5.0000000000000000e+02
-5.0000000000000000e+02 5.0000000000000000e+02
-5.0000000000000000e+02 5.0000000000000000e+02
ITEM: ATOMS id type x y z c_q[1] c_q[2] c_q[3] c_q[4] 
1 1 -490.565 -482.584 -491.946 0.197645 0.536736 0.369242 0.732469 
6 1 174.018 -170.672 -474.541 0.435038 0.504398 0.214329 0.714414 
4 1 478.298 -191.801 -474.388 0.702823 0.322559 0.629237 -0.0778213 
2 1 -141.275 486.172 -495.846 -0.0899436 0.389289 0.351624 0.846596 
11 1 -172.645 -490.81 -171.575 0.30542 -0.00731356 0.733003 0.60776 
14 1 -156.226 -194.018 -166.547 0.395373 0.340164 0.495925 0.694281 
15 1 161.848 -186.361 -176.643 0.629847 0.204503 0.129741 0.737997 
10 1 480.959 -491.791 -164.109 0.133015 0.706267 0.690226 0.0841587 
13 1 498.913 -163.85 -163.178 0.457644 0.644155 0.345217 0.506411 
12 1 135.541 491.856 -157.924 0.649209 0.361606 0.437102 0.506666 
5 1 -189.54 -190.143 494.316 0.214956 0.660713 0.626742 0.352771 
7 1 -475.802 142.034 498.603 0.149891 0.869951 0.448881 -0.138652 
9 1 178.022 157.737 497.694 0.74056 0.486743 0.455167 0.0864568 
8 1 -193.422 172.725 457.028 0.684062 0.356695 0.270819 0.575748 
3 1 164.678 481.656 492.097 0.248417 0.553116 0.697803 0.381344 
ITEM: TIMESTEP
230000
ITEM: NUMBER OF ATOMS
15
ITEM: BOX BOUNDS pp pp pp
-5.0000000000000000e+02 5.0000000000000000e+02
-5.0000000000000000e+02 5.0000000000000000e+02
-5.0000000000000000e+02 5.0000000000000000e+02
ITEM: ATOMS id type x y z c_q[1] c_q[2] c_q[3] c_q[4] 
1 1 -490.689 -484.509 -496.832 0.224986 0.568737 0.346964 0.711011 
6 1 170.92 -166.859 -475.103 0.384333 0.480514 0.228982 0.754295 
4 1 480.77 -190.07 -471.98 0.718882 0.375917 0.575114 -0.105541 
2 1 -142.871 487.929 -496.182 -0.102702 0.392304 0.316006 0.857724 
11 1 -171.983 -486.986 -173.525 0.328075 -0.0590209 0.720468 0.60812 
14 1 -162.163 -193.684 -170.943 0.368279 0.363556 0.517531 0.68144 
15 1 161.09 -184.465 -171.412 0.591066 0.214254 0.151683 0.762711 
10 1 484.044 -486.104 -162.906 0.119928 0.697818 0.7011 0.0844126 