ITEM: TIMESTEP
0
ITEM: NUMBER OF ATOMS
5
ITEM: BOX BOUNDS pp pp pp
-5.0000000000000000e+02 5.0000000000000000e+02
-5.0000000000000000e+02 5.0000000000000000e+02
-5.0000000000000000e+02 5.0000000000000000e+02
ITEM: ATOMS id type x y z c_q[1] c_q[2] c_q[3] c_q[4] 
1 1 -500 -500 -500 0.25352 0.790921 0.50979 0.224244 
2 1 0 -500 -500 0.823722 0.076372 0.510178 0.235304 
3 1 -500 0 -500 0.01365 0.631776 0.303177 0.713271 
4 1 0 0 -500 0.633593 0.318847 0.233168 0.665228 
5 1 -500 -500 0 0.523426 0.063712 0.62889 0.57137 
ITEM: TIMESTEP
10000
ITEM: NUMBER OF ATOMS
5
ITEM: BOX BOUNDS pp pp pp
-5.0000000000000000e+02 5.0000000000000000e+02
-5.0000000000000000e+02 5.0000000000000000e+02
-5.0000000000000000e+02 5.0000000000000000e+02
ITEM: ATOMS id type x y z c_q[1] c_q[2] c_q[3] c_q[4] 
4 1 -4.94297 3.81165 -499.009 0.621748 0.312407 0.253588 0.671955 
5 1 494.961 498.084 0.749868 0.521046 0.0591848 0.629512 0.573343 
1 1 -498.192 -498.238 494.803 0.278296 0.810182 0.487554 0.168663 
3 1 -499.72 -1.9544 494.815 0.0221165 0.601802 0.265355 0.752949 
2 1 -3.09873 494.701 497.895 0.795492 0.056124 0.556888 0.232204 
ITEM: TIMESTEP
20000
ITEM: NUMBER OF ATOMS
5
ITEM: BOX BOUNDS pp pp pp
-5.0000000000000000e+02 5.0000000000000000e+02
-5.0000000000000000e+02 5.0000000000000000e+02
-5.0000000000000000e+02 5.0000000000000000e+02
ITEM: ATOMS id type x y z c_q[1] c_q[2] c_q[3] c_q[4] 
5 1 488.88 498.535 -4.69626 0.551826 0.0828061 0.633351 0.536189 
1 1 -497.41 -497.548 494.231 0.281013 0.773325 0.546611 0.155616 
3 1 -493.401 -2.89322 494.543 -0.00301449 0.606432 0.242036 0.757396 
4 1 -2.2484 5.63863 497.62 0.668366 0.258588 0.235767 0.656378 
2 1 -7.9899 499.792 494.488 0.797674 0.0804617 0.536886 0.262672 
ITEM: TIMESTEP
30000
ITEM: NUMBER OF ATOMS
5
ITEM: BOX BOUNDS pp pp pp
-5.0000000000000000e+02 5.0000000000000000e+02
-5.0000000000000000e+02 5.0000000000000000e+02
-5.0000000000000000e+02 5.0000000000000000e+02
ITEM: ATOMS id type x y z c_q[1] c_q[2] c_q[3] c_q[4] 
5 1 488.767 496.922 -1.78747 0.553174 0.0518903 0.618488 0.555678 
2 1 -7.72128 -498.718 492.412 0.814235 0.0781136 0.500395 0.283768 
3 1 -492.293 -5.97458 495.28 -0.0146881 0.625045 0.292073 0.723738 
4 1 0.133376 6.29856 496.592 0.668378 0.253085 0.193712 0.672082 
1 1 -493.288 497.497 486.189 0.251599 0.768155 0.569016 0.151185 
ITEM: TIMESTEP
40000
ITEM: NUMBER OF ATOMS
5
ITEM: BOX BOUNDS pp pp pp
-5.0000000000000000e+02 5.0000000000000000e+02
-5.0000000000000000e+02 5.0000000000000000e+02
-5.0000000000000000e+02 5.0000000000000000e+02
ITEM: ATOMS id type x y z c_q[1] c_q[2] c_q[3] c_q[4] 
5 1 492.305 496.83 2.27753 0.551915 0.0402809 0.614458 0.562324 
2 1 -5.50793 -499.166 496.08 0.834776 0.0509588 0.470236 0.281834 
3 1 -495.966 -5.18157 496.13 -0.0105178 0.670868 0.26019 0.694354 
4 1 0.383029 6.12428 495.615 0.626484 0.289338 0.18774 0.698967 
1 1 -496.425 495.032 485.518 0.257252 0.755879 0.578145 0.167979 
ITEM: TIMESTEP
50000
ITEM: NUMBER OF ATOMS
5
ITEM: BOX BOUNDS pp pp pp
-5.0000000000000000e+02 5.0000000000000000e+02
-5.0000000000000000e+02 5.0000000000000000e+02
-5.0000000000000000e+02 5.0000000000000000e+02
ITEM: ATOMS id type x y z c_q[1] c_q[2] c_q[3] c_q[4] 
5 1 492.182 495.037 5.9894 0.530062 0.0599128 0.640963 0.551915 
1 1 -495.662 -498.859 485.02 0.277309 0.757781 0.563123 0.178216 
2 1 -3.41986 -498.335 493.203 0.865319 0.00597579 0.438861 0.24205 
3 1 -495.192 -8.76787 495.78 0.00556494 0.692702 0.273637 0.667276 
4 1 -2.84449 9.61985 498.64 0.612417 0.296404 0.224653 0.697583 
ITEM: TIMESTEP
60000
ITEM: NUMBER OF ATOMS
5
ITEM: BOX BOUNDS pp pp pp
-5.0000000000000000e+02 5.0000000000000000e+02
-5.0000000000000000e+02 5.0000000000000000e+02
-5.0000000000000000e+02 5.0000000000000000e+02
ITEM: ATOMS id type x y z c_q[1] c_q[2] c_q[3] c_q[4] 
5 1 492.403 491.792 11.0065 0.528366 0.0519673 0.617526 0.580337 
2 1 -0.456382 -494.758 496.021 0.866116 0.026572 0.413691 0.279279 
3 1 -493.349 -5.3425 494.485 -0.00996826 0.690116 0.268012 0.672169 
4 1 -4.03502 11.8086 497.213 0.643928 0.302354 0.180555 0.67922 
1 1 495.422 499.526 480.959 0.252683 0.762834 0.566433 0.182729 
ITEM: TIMESTEP
70000
ITEM: NUMBER OF ATOMS
5
ITEM: BOX BOUNDS pp pp pp
-5.0000000000000000e+02 5.0000000000000000e+02
-5.0000000000000000e+02 5.0000000000000000e+02
-5.0000000000000000e+02 5.0000000000000000e+02
ITEM: ATOMS id type x y z c_q[1] c_q[2] c_q[3] c_q[4] 
5 1 487.663 494.59 12.5391 0.514968 0.0615572 0.620241 0.58849 
2 1 -1.52971 -494.037 495.191 0.849976 0.0139494 0.433281 0.299355 
1 1 493.299 -493.245 482.632 0.185854 0.761999 0.609231 0.116849 
3 1 -493.4 -13.6372 492.097 -0.0668748 0.695724 0.255831 0.667867 
4 1 -4.06474 13.8484 499.014 0.636863 0.286379 0.151073 0.699692 
ITEM: TIMESTEP
80000
ITEM: NUMBER OF ATOMS
5
ITEM: BOX BOUNDS pp pp pp
-5.0000000000000000e+02 5.0000000000000000e+02
-5.0000000000000000e+02 5.0000000000000000e+02
-5.0000000000000000e+02 5.0000000000000000e+02
ITEM: ATOMS id type x y z c_q[1] c_q[2] c_q[3] c_q[4] 
5 1 483.589 490.715 18.458 0.545322 0.00440772 0.601167 0.584125 
2 1 -2.01604 -498.416 495.656 0.862547 0.0344225 0.415777 0.286281 
1 1 499.267 -493.773 482.479 0.181158 0.802126 0.554552 0.127467 
3 1 499.586 -15.7399 493.619 -0.0784301 0.69577 0.200086 0.68536 
4 1 -7.38747 8.49711 493.12 0.607803 0.332867 0.134401 0.708315 
ITEM: TIMESTEP
90000
ITEM: NUMBER OF ATOMS
5
ITEM: BOX BOUNDS pp pp pp
-5.0000000000000000e+02 5.0000000000000000e+02
-5.0000000000000000e+02 5.0000000000000000e+02
-5.0000000000000000e+02 5.0000000000000000e+02
ITEM: ATOMS id type x y z c_q[1] c_q[2] c_q[3] c_q[4] 
5 1 484.592 492.76 14.8348 0.532741 -0.0410303 0.599454 0.595952 
2 1 -6.56521 -489.569 495.544 0.856348 0.0196153 0.442666 0.265199 
1 1 495.958 -490.627 478.003 0.149268 0.79743 0.558101 0.174206 
3 1 -499.534 -21.3974 495.262 -0.0797706 0.71819 0.209495 0.65875 
4 1 -3.79973 2.45848 491.786 0.583692 0.253893 0.107585 0.763719 
ITEM: TIMESTEP
100000
ITEM: NUMBER OF ATOMS
5
ITEM: BOX BOUNDS pp pp pp
-5.0000000000000000e+02 5.0000000000000000e+02
-5.0000000000000000e+02 5.0000000000000000e+02
-5.0000000000000000e+02 5.0000000000000000e+02
ITEM: ATOMS id type x y z c_q[1] c_q[2] c_q[3] c_q[4] 
5 1 486.26 490.986 9.78797 0.520037 -0.0362723 0.594459 0.612262 
2 1 -5.49304 -489.051 493.331 0.858954 -0.0207857 0.418149 0.294817 
1 1 498.35 -488.083 474.513 0.137506 0.819565 0.530641 0.166809 
3 1 498.884 -19.9188 496.611 -0.101589 0.722837 0.233044 0.642555 
4 1 -5.78103 1.62906 488.195 0.584116 0.18151 0.123489 0.781417 
ITEM: TIMESTEP
110000
ITEM: NUMBER OF ATOMS
5
ITEM: BOX BOUNDS pp pp pp
-5.0000000000000000e+02 5.0000000000000000e+02
-5.0000000000000000e+02 5.0000000000000000e+02
-5.0000000000000000e+02 5.0000000000000000e+02
ITEM: ATOMS id type x y z c_q[1] c_q[2] c_q[3] c_q[4] 
5 1 488.682 484.881 9.18801 0.48616 -0.0712278 0.603744 0.627749 
2 1 -2.30767 -487.132 484.873 0.862397 -0.0240384 0.411418 0.29399 
1 1 -499.815 -493.547 472.782 0.125771 0.811263 0.532352 0.206482 
3 1 -499.354 -18.3599 495.966 -0.100769 0.728679 0.227315 0.638122 
4 1 -7.86307 -4.04945 490.267 0.575042 0.123004 0.147226 0.795312 
ITEM: TIMESTEP
120000
ITEM: NUMBER OF ATOMS
5
ITEM: BOX BOUNDS pp pp pp
-5.0000000000000000e+02 5.0000000000000000e+02
-5.0000000000000000e+02 5.0000000000000000e+02
-5.0000000000000000e+02 5.0000000000000000e+02
ITEM: ATOMS id type x y z c_q[1] c_q[2] c_q[3] c_q[4] 
5 1 487.242 487.415 9.50777 0.515442 -0.06891 0.611134 0.59673 
1 1 -497.708 -497.107 471.555 0.128948 0.816778 0.530731 0.185932 
2 1 1.55861 -480.356 483.843 0.861485 0.0288525 0.389356 0.324674 
4 1 -9.93866 -1.86625 494.822 0.589851 0.11894 0.168474 0.780734 
3 1 497.943 -24.3363 492.767 -0.120638 0.72201 0.233576 0.639993 
ITEM: TIMESTEP
130000
ITEM: NUMBER OF ATOMS
5
ITEM: BOX BOUNDS pp pp pp
-5.0000000000000000e+02 5.0000000000000000e+02
-5.0000000000000000e+02 5.0000000000000000e+02
-5.0000000000000000e+02 5.0000000000000000e+02
ITEM: ATOMS id type x y z c_q[1] c_q[2] c_q[3] c_q[4] 
5 1 484.693 487.957 7.31853 0.474555 -0.114225 0.617027 0.617275 
1 1 -496.434 -499.162 472.565 0.111336 0.822201 0.537956 0.14897 
2 1 2.53373 -480.91 484.225 0.864967 0.0593015 0.403363 0.292599 
4 1 -9.69607 -1.61783 494.071 0.587572 0.105647 0.117244 0.793632 
3 1 495.703 -27.5308 497.422 -0.139641 0.709033 0.21321 0.657505 
ITEM: TIMESTEP
140000
ITEM: NUMBER OF ATOMS
5
ITEM: BOX BOUNDS pp pp pp
-5.0000000000000000e+02 5.0000000000000000e+02
-5.0000000000000000e+02 5.0000000000000000e+02
-5.0000000000000000e+02 5.0000000000000000e+02
ITEM: ATOMS id type x y z c_q[1] c_q[2] c_q[3] c_q[4] 
5 1 487.975 489.894 9.44977 0.441695 -0.139804 0.569014 0.6794 
1 1 -494.494 -498.48 471.25 0.0761612 0.801602 0.56827 0.169416 
2 1 0.348344 -481.168 483.957 0.858032 0.0363405 0.411393 0.305312 
4 1 -9.90099 -2.35708 493.639 0.609671 0.0112934 0.118385 0.783683 
3 1 494.785 -32.6626 494.987 -0.155674 0.707774 0.18672 0.663292 
ITEM: TIMESTEP
150000
ITEM: NUMBER OF ATOMS
5
ITEM: BOX BOUNDS pp pp pp
-5.0000000000000000e+02 5.0000000000000000e+02
-5.0000000000000000e+02 5.0000000000000000e+02
-5.0000000000000000e+02 5.0000000000000000e+02
ITEM: ATOMS id type x y z c_q[1] c_q[2] c_q[3] c_q[4] 
5 1 493.683 495.602 6.59464 0.423091 -0.121955 0.578137 0.686934 
2 1 2.59887 -480.473 479.218 0.870462 0.0283244 0.36831 0.325334 
4 1 -10.653 -0.611804 488.832 0.596582 0.0222713 0.109252 0.794769 
3 1 495.342 -31.107 494.28 -0.141261 0.68985 0.191844 0.683629 
1 1 -494.852 497.724 479.32 0.0775895 0.813831 0.546938 0.180327 
ITEM: TIMESTEP
160000
ITEM: NUMBER OF ATOMS
5
ITEM: BOX BOUNDS pp pp pp
-5.0000000000000000e+02 5.0000000000000000e+02
-5.0000000000000000e+02 5.0000000000000000e+02
-5.0000000000000000e+02 5.0000000000000000e+02
ITEM: ATOMS id type x y z c_q[1] c_q[2] c_q[3] c_q[4] 
5 1 -499.805 498.212 3.47943 0.458983 -0.110635 0.5848 0.659623 
1 1 -498.696 -499.203 478.468 0.0931885 0.842022 0.506201 0.161482 
2 1 -3.05194 -487.603 480.404 0.832707 -0.0261227 0.424539 0.354517 
3 1 491.493 -28.2711 492.411 -0.129314 0.645828 0.239016 0.713481 
4 1 -10.6667 0.140906 489.562 0.590434 0.0742284 0.118048 0.794948 
ITEM: TIMESTEP
170000
ITEM: NUMBER OF ATOMS
5
ITEM: BOX BOUNDS pp pp pp
-5.0000000000000000e+02 5.0000000000000000e+02
-5.0000000000000000e+02 5.0000000000000000e+02
-5.0000000000000000e+02 5.0000000000000000e+02
ITEM: ATOMS id type x y z c_q[1] c_q[2] c_q[3] c_q[4] 
5 1 496.892 499.065 2.38735 0.480373 -0.0992632 0.569556 0.659541 
1 1 -498.364 -496.46 479.455 0.060774 0.856428 0.500933 0.109102 
2 1 -5.70438 -487.107 485.871 0.808681 -0.0251272 0.441173 0.388291 
4 1 -9.82455 0.369409 485.283 0.60154 0.116074 0.117618 0.781564 
3 1 495.55 -29.1012 496.104 -0.0861772 0.614314 0.239513 0.746877 
ITEM: TIMESTEP
180000
ITEM: NUMBER OF ATOMS
5
ITEM: BOX BOUNDS pp pp pp
-5.0000000000000000e+02 5.0000000000000000e+02
-5.0000000000000000e+02 5.0000000000000000e+02
-5.0000000000000000e+02 5.0000000000000000e+02
ITEM: ATOMS id type x y z c_q[1] c_q[2] c_q[3] c_q[4] 
5 1 495.436 498.12 7.11426 0.475724 -0.125284 0.566903 0.660766 
1 1 -497.084 499.745 485.562 0.140591 0.836432 0.513895 0.128561 
2 1 -6.71507 -494.801 486.722 0.819686 -0.0248177 0.406685 0.402625 
4 1 -6.57927 0.52695 483.012 0.614166 0.150624 0.205865 0.746814 
3 1 495.647 -25.9657 496.243 -0.0907532 0.605621 0.243359 0.752173 
ITEM: TIMESTEP
190000
ITEM: NUMBER OF ATOMS
5
ITEM: BOX BOUNDS pp pp pp
-5.0000000000000000e+02 5.0000000000000000e+02
-5.0000000000000000e+02 5.0000000000000000e+02
-5.0000000000000000e+02 5.0000000000000000e+02
ITEM: ATOMS id type x y z c_q[1] c_q[2] c_q[3] c_q[4] 
3 1 492.274 -24.9532 -497.047 -0.101294 0.638299 0.167848 0.744406 
5 1 491.903 497.742 8.9015 0.458801 -0.143302 0.53642 0.6937 
2 1 -5.87092 -497.243 490.912 0.820792 -0.0167436 0.410072 0.397318 
4 1 -9.51889 7.13908 482.543 0.648029 0.103958 0.179784 0.732754 
1 1 -494.901 493.725 483.341 0.1378 0.854333 0.486489 0.120232 
ITEM: TIMESTEP
200000
ITEM: NUMBER OF ATOMS
5
ITEM: BOX BOUNDS pp pp pp
-5.0000000000000000e+02 5.0000000000000000e+02
-5.0000000000000000e+02 5.0000000000000000e+02
-5.0000000000000000e+02 5.0000000000000000e+02
ITEM: ATOMS id type x y z c_q[1] c_q[2] c_q[3] c_q[4] 
3 1 490.305 -23.2806 -494.263 -0.108161 0.628915 0.132352 0.758452 
5 1 494.049 493.398 10.5923 0.485065 -0.112927 0.533739 0.683434 
2 1 -14.8472 -495.466 488.358 0.819881 -0.00223137 0.442637 0.36313 
4 1 -9.23983 6.09639 482.551 0.610854 0.11535 0.164644 0.765797 
1 1 498.271 486.178 485.887 0.108337 0.862598 0.471445 0.148082 
ITEM: TIMESTEP
210000
ITEM: NUMBER OF ATOMS
5
ITEM: BOX BOUNDS pp pp pp
-5.0000000000000000e+02 5.0000000000000000e+02
-5.0000000000000000e+02 5.0000000000000000e+02
-5.0000000000000000e+02 5.0000000000000000e+02
ITEM: ATOMS id type x y z c_q[1] c_q[2] c_q[3] c_q[4] 
3 1 492.669 -20.9618 -491.624 -0.109579 0.652098 0.140396 0.736918 
5 1 494.448 495.364 15.1875 0.479902 -0.122242 0.538543 0.681705 
2 1 -15.2802 -496.904 486.83 0.83798 -0.0105423 0.415349 0.353783 
4 1 -9.52647 13.1377 478.52 0.616248 0.121625 0.164893 0.760432 
1 1 493.165 485.619 481.361 0.0833957 0.843153 0.503185 0.170125 
ITEM: TIMESTEP
220000
ITEM: NUMBER OF ATOMS
5
ITEM: BOX BOUNDS pp pp pp
-5.0000000000000000e+02 5.0000000000000000e+02
-5.0000000000000000e+02 5.0000000000000000e+02
-5.0000000000000000e+02 5.0000000000000000e+02
ITEM: ATOMS id type x y z c_q[1] c_q[2] c_q[3] c_q[4] 
3 1 489.892 -22.108 -492.805 -0.105946 0.646833 0.165386 0.736905 
5 1 495.519 494.868 11.4429 0.506161 -0.0675708 0.555944 0.655867 
2 1 -20.0676 -496.149 478.99 0.84949 -0.0602144 0.355542 0.385137 
4 1 -11.0683 13.5569 481.237 0.603034 0.0776365 0.175773 0.774227 
1 1 493.938 487.654 480.016 0.0949747 0.834337 0.508759 0.189806 
ITEM: TIMESTEP
230000
ITEM: NUMBER OF ATOMS
5
ITEM: BOX BOUNDS pp pp pp
-5.0000000000000000e+02 5.0000000000000000e+02
-5.0000000000000000e+02 5.0000000000000000e+02
-5.0000000000000000e+02 5.0000000000000000e+02
ITEM: ATOMS id type x y z c_q[1] c_q[2] c_q[3] c_q[4] 
3 1 492.505 -16.2393 -489.856 -0.130194 0.63605 0.206826 0.731925 
5 1 497.82 497.415 12.4014 0.558611 -0.126431 0.547191 0.61037 
2 1 -14.8959 -496.201 478.101 0.866358 -0.0515857 0.296565 0.398513 
4 1 -9.50591 15.1031 482.272 0.562271 0.0725958 0.190269 0.801486 
1 1 492.071 486.61 484.198 0.0756878 0.845411 0.47305 0.236167 
ITEM: TIMESTEP
240000
ITEM: NUMBER OF ATOMS
5
ITEM: BOX BOUNDS pp pp pp
-5.0000000000000000e+02 5.0000000000000000e+02
-5.0000000000000000e+02 5.0000000000000000e+02
-5.0000000000000000e+02 5.0000000000000000e+02
ITEM: ATOMS id type x y z c_q[1] c_q[2] c_q[3] c_q[4] 
3 1 490.892 -15.6101 -491.646 -0.137931 0.630568 0.233974 0.727059 
5 1 500.029 495.631 13.416 0.54571 -0.161643 0.557946 0.603961 
2 1 -14.5467 -499.182 478.211 0.865455 -0.00576382 0.301338 0.400187 
4 1 -9.43249 17.8732 483.887 0.567104 0.0394091 0.20225 0.797455 
1 1 493.756 487.692 488.242 0.0683146 0.866077 0.45736 0.189909 
ITEM: TIMESTEP
250000
ITEM: NUMBER OF ATOMS
5
ITEM: BOX BOUNDS pp pp pp
-5.0000000000000000e+02 5.0000000000000000e+02
-5.0000000000000000e+02 5.0000000000000000e+02
-5.0000000000000000e+02 5.0000000000000000e+02
ITEM: ATOMS id type x y z c_q[1] c_q[2] c_q[3] c_q[4] 
3 1 492.346 -14.4952 -489.388 -0.0991309 0.633539 0.239229 0.729089 
5 1 -497.881 495.346 10.6038 0.56715 -0.148795 0.538673 0.605007 
2 1 -15.1055 -499.24 482.143 0.879235 -0.0158134 0.257469 0.400506 
4 1 -8.3778 11.0587 482.919 0.603757 0.037535 0.172793 0.77731 
1 1 488.263 487.891 483.221 0.0869672 0.866374 0.434777 0.229785 
ITEM: TIMESTEP
260000
ITEM: NUMBER OF ATOMS
5
ITEM: BOX BOUNDS pp pp pp
-5.0000000000000000e+02 5.0000000000000000e+02
-5.0000000000000000e+02 5.0000000000000000e+02
-5.0000000000000000e+02 5.0000000000000000e+02
ITEM: ATOMS id type x y z c_q[1] c_q[2] c_q[3] c_q[4] 
3 1 491.971 -14.5211 -489.824 -0.0854435 0.570803 0.280137 0.767077 
5 1 -497.561 -499.515 10.272 0.535492 -0.074833 0.554366 0.632714 
4 1 -13.2607 9.02967 478.854 0.619745 0.0451302 0.192425 0.759508 
2 1 -14.502 498.448 477.617 0.874573 -0.0100542 0.273327 0.400391 
1 1 487.786 486.896 485.384 0.109386 0.850332 0.470694 0.208368 
ITEM: TIMESTEP
270000
ITEM: NUMBER OF ATOMS
5
ITEM: BOX BOUNDS pp pp pp
-5.0000000000000000e+02 5.0000000000000000e+02
-5.0000000000000000e+02 5.0000000000000000e+02
-5.0000000000000000e+02 5.0000000000000000e+02
ITEM: ATOMS id type x y z c_q[1] c_q[2] c_q[3] c_q[4] 
3 1 494.322 -17.9143 -491.573 -0.0983 0.562852 0.297447 0.764892 
5 1 499.315 493.296 9.29202 0.539197 -0.0742963 0.556893 0.627389 
4 1 -14.1558 9.22974 476.062 0.605214 0.0633421 0.150846 0.77907 
2 1 -16.9005 496.486 482.289 0.850425 0.0132022 0.291212 0.437949 
1 1 492.053 481.873 481.978 0.142106 0.838777 0.470998 0.233281 
ITEM: TIMESTEP
280000
ITEM: NUMBER OF ATOMS
5
ITEM: BOX BOUNDS pp pp pp
-5.0000000000000000e+02 5.0000000000000000e+02
-5.0000000000000000e+02 5.0000000000000000e+02
-5.0000000000000000e+02 5.0000000000000000e+02
ITEM: ATOMS id type x y z c_q[1] c_q[2] c_q[3] c_q[4] 
3 1 491.579 -13.9847 -492.735 -0.164369 0.559054 0.316389 0.748558 
5 1 499.346 492.558 0.141399 0.555799 -0.0933927 0.558902 0.608271 
4 1 -12.1527 10.8272 475.696 0.574436 0.0926816 0.190436 0.790676 
2 1 -13.1174 496.588 484.687 0.845295 -0.0175734 0.270213 0.4606 
1 1 490.091 473.745 481.933 0.103377 0.815616 0.514456 0.243759 
ITEM: TIMESTEP
290000
ITEM: NUMBER OF ATOMS
5
ITEM: BOX BOUNDS pp pp pp
-5.0000000000000000e+02 5.0000000000000000e+02
-5.0000000000000000e+02 5.0000000000000000e+02
-5.0000000000000000e+02 5.0000000000000000e+02
ITEM: ATOMS id type x y z c_q[1] c_q[2] c_q[3] c_q[4] 
3 1 490.773 -13.6078 -495.175 -0.158453 0.548223 0.261708 0.778366 
5 1 -493.938 495.936 5.74991 0.568322 -0.1056 0.571312 0.582633 
4 1 -10.5277 8.16616 477.567 0.552321 0.101124 0.210729 0.800193 
2 1 -8.97629 496.389 478.981 0.850282 -0.01053 0.264692 0.454805 
1 1 490.735 471.343 481.51 0.0811035 0.825007 0.508557 0.232714 
ITEM: TIMESTEP
300000
ITEM: NUMBER OF ATOMS
5
ITEM: BOX BOUNDS pp pp pp
-5.0000000000000000e+02 5.0000000000000000e+02
-5.0000000000000000e+02 5.0000000000000000e+02
-5.0000000000000000e+02 5.0000000000000000e+02
ITEM: ATOMS id type x y z c_q[1] c_q[2] c_q[3] c_q[4] 
3 1 490.961 -14.8765 -497.779 -0.110261 0.548421 0.260181 0.787009 
5 1 -495.949 491.551 4.27694 0.57848 -0.14016 0.568737 0.567675 
2 1 -9.44393 -498.724 480.865 0.851775 -0.0207507 0.203165 0.482465 
4 1 -11.0265 6.24867 479.854 0.535561 0.0736941 0.192823 0.818879 
1 1 487.114 469.008 482.611 0.069681 0.808995 0.513524 0.277427 
ITEM: TIMESTEP
310000
ITEM: NUMBER OF ATOMS
5
ITEM: BOX BOUNDS pp pp pp
-5.0000000000000000e+02 5.0000000000000000e+02
-5.0000000000000000e+02 5.0000000000000000e+02
-5.0000000000000000e+02 5.0000000000000000e+02
ITEM: ATOMS id type x y z c_q[1] c_q[2] c_q[3] c_q[4] 
3 1 489.573 -13.8116 -498.037 -0.132509 0.571912 0.258805 0.767058 
5 1 -494.057 490.869 2.37239 0.593299 -0.119957 0.531972 0.592126 
4 1 -6.41767 6.87781 483.53 0.584019 0.0526659 0.224574 0.778277 
2 1 -7.41958 498.521 477.8 0.827851 -0.0333337 0.165952 0.5348 
1 1 480.254 469.604 481.642 0.0951852 0.801096 0.513968 0.291587 
ITEM: TIMESTEP
320000
ITEM: NUMBER OF ATOMS
5
ITEM: BOX BOUNDS pp pp pp
-5.0000000000000000e+02 5.0000000000000000e+02
-5.0000000000000000e+02 5.0000000000000000e+02
-5.0000000000000000e+02 5.0000000000000000e+02
ITEM: ATOMS id type x y z c_q[1] c_q[2] c_q[3] c_q[4] 
5 1 -498.238 491.049 -4.3193 0.59215 -0.114498 0.546189 0.581314 
3 1 492.24 -16.007 496.579 -0.0939678 0.601171 0.253257 0.75208 
4 1 -2.69486 0.908442 481.338 0.563947 0.0365817 0.227572 0.792992 
2 1 -7.95645 497.72 474.034 0.802822 -0.0446697 0.155673 0.573801 
1 1 477.409 470.267 483.818 0.0906559 0.828306 0.480904 0.272802 
ITEM: TIMESTEP
330000
ITEM: NUMBER OF ATOMS
5
ITEM: BOX BOUNDS pp pp pp
-5.0000000000000000e+02 5.0000000000000000e+02
-5.0000000000000000e+02 5.0000000000000000e+02
-5.0000000000000000e+02 5.0000000000000000e+02
ITEM: ATOMS id type x y z c_q[1] c_q[2] c_q[3] c_q[4] 
5 1 498.874 491.617 -5.38935 0.615818 -0.0659487 0.537513 0.572276 
2 1 -10.7691 -498.546 474.371 0.822546 -0.043538 0.129651 0.552008 
4 1 -6.51446 -2.10742 482.819 0.60792 0.023413 0.224744 0.761167 
3 1 484.73 -5.7078 492.862 -0.106667 0.609872 0.228512 0.751306 
1 1 478.276 472.59 485.772 0.0944321 0.803174 0.517493 0.279633 
ITEM: TIMESTEP
340000
ITEM: NUMBER OF ATOMS
5
ITEM: BOX BOUNDS pp pp pp
-5.0000000000000000e+02 5.0000000000000000e+02
-5.0000000000000000e+02 5.0000000000000000e+02
-5.0000000000000000e+02 5.0000000000000000e+02
ITEM: ATOMS id type x y z c_q[1] c_q[2] c_q[3] c_q[4] 
5 1 -498.904 488.889 -4.61078 0.584188 -0.130527 0.563164 0.569678 
2 1 -10.3059 -496.319 474.593 0.808436 -0.0612073 0.109116 0.575134 
3 1 485.467 -3.60869 493.881 -0.116194 0.591503 0.24278 0.760053 
4 1 -6.48377 2.45857 485.812 0.673451 -0.0375382 0.196458 0.711659 
1 1 482.341 473.727 481.364 0.0754505 0.783616 0.529952 0.315283 
ITEM: TIMESTEP
350000
ITEM: NUMBER OF ATOMS
5
ITEM: BOX BOUNDS pp pp pp
-5.0000000000000000e+02 5.0000000000000000e+02
-5.0000000000000000e+02 5.0000000000000000e+02
-5.0000000000000000e+02 5.0000000000000000e+02
ITEM: ATOMS id type x y z c_q[1] c_q[2] c_q[3] c_q[4] 
5 1 -496.453 494.028 -11.5574 0.553384 -0.13831 0.589778 0.571662 
2 1 -17.4233 -497.497 479.125 0.823654 -0.10276 0.111228 0.546501 
3 1 484.294 -4.6865 497.565 -0.10963 0.610958 0.207735 0.756015 
4 1 -3.23989 4.29187 480.668 0.692949 -0.0277215 0.164234 0.701485 
1 1 480.203 469.116 482.689 0.0994741 0.768976 0.527683 0.346889 
ITEM: TIMESTEP
360000
ITEM: NUMBER OF ATOMS
5
ITEM: BOX BOUNDS pp pp pp
-5.0000000000000000e+02 5.0000000000000000e+02
-5.0000000000000000e+02 5.0000000000000000e+02
-5.0000000000000000e+02 5.0000000000000000e+02
ITEM: ATOMS id type x y z c_q[1] c_q[2] c_q[3] c_q[4] 
5 1 497.055 490.986 -12.8082 0.605537 -0.108814 0.602775 0.508081 
2 1 -13.8021 -498.568 483.668 0.845449 -0.0575555 0.114646 0.51842 
3 1 483.308 -1.71918 495.844 -0.117735 0.613069 0.245015 0.74179 
4 1 -1.09306 4.58902 479.739 0.684821 -0.0235505 0.185079 0.704423 
1 1 479.928 476.627 483.677 0.101595 0.770132 0.515781 0.361311 
ITEM: TIMESTEP
370000
ITEM: NUMBER OF ATOMS
5
ITEM: BOX BOUNDS pp pp pp
-5.0000000000000000e+02 5.0000000000000000e+02
-5.0000000000000000e+02 5.0000000000000000e+02
-5.0000000000000000e+02 5.0000000000000000e+02
ITEM: ATOMS id type x y z c_q[1] c_q[2] c_q[3] c_q[4] 
5 1 495.607 495.866 -14.6321 0.608584 -0.128477 0.567742 0.539248 
2 1 -14.5265 -494.055 485.529 0.850201 -0.0304827 0.091495 0.51755 
3 1 483.761 -5.21121 494.079 -0.136624 0.629214 0.244701 0.724945 
4 1 -1.13089 1.06008 485.481 0.704149 0.0168189 0.215902 0.676223 
1 1 481.63 479.354 478.645 0.0898364 0.766495 0.544083 0.329224 
ITEM: TIMESTEP
380000
ITEM: NUMBER OF ATOMS
5
ITEM: BOX BOUNDS pp pp pp
-5.0000000000000000e+02 5.0000000000000000e+02
-5.0000000000000000e+02 5.0000000000000000e+02
-5.0000000000000000e+02 5.0000000000000000e+02
ITEM: ATOMS id type x y z c_q[1] c_q[2] c_q[3] c_q[4] 
5 1 497.705 496.59 -18.2508 0.567931 -0.149354 0.571395 0.573285 
2 1 -9.53495 -490.649 486.691 0.884107 -0.0675075 0.0872236 0.454081 
3 1 483.053 -3.92935 493.891 -0.151621 0.632758 0.258345 0.714063 
4 1 -1.10928 6.60698 491.081 0.72363 0.0192889 0.195595 0.661612 
1 1 475.9 478.302 476.539 0.0626151 0.797089 0.515536 0.30814 
ITEM: TIMESTEP
390000
ITEM: NUMBER OF ATOMS
5
ITEM: BOX BOUNDS pp pp pp
-5.0000000000000000e+02 5.0000000000000000e+02
-5.0000000000000000e+02 5.0000000000000000e+02
-5.0000000000000000e+02 5.0000000000000000e+02
ITEM: ATOMS id type x y z c_q[1] c_q[2] c_q[3] c_q[4] 
5 1 495.822 488.349 -17.0586 0.574108 -0.108426 0.578786 0.568903 
2 1 -6.9266 -493.164 491.49 0.88995 -0.0816829 0.0701133 0.443171 
3 1 485.013 -0.979556 489.249 -0.13218 0.667158 0.22886 0.696456 
4 1 0.429099 9.62104 490.677 0.741743 0.0367868 0.208699 0.636324 
1 1 472.623 482.331 476.252 0.107955 0.766909 0.525615 0.352032 
ITEM: TIMESTEP
400000
ITEM: NUMBER OF ATOMS
5
ITEM: BOX BOUNDS pp pp pp
-5.0000000000000000e+02 5.0000000000000000e+02
-5.0000000000000000e+02 5.0000000000000000e+02
-5.0000000000000000e+02 5.0000000000000000e+02
ITEM: ATOMS id type x y z c_q[1] c_q[2] c_q[3] c_q[4] 
5 1 494.494 491.158 -13.7868 0.542017 -0.0942545 0.570491 0.609814 
2 1 -9.87895 -490.844 491.261 0.891708 -0.0568603 0.0797795 0.441881 
3 1 485.043 -3.5954 493.243 -0.128056 0.677846 0.257888 0.676476 
4 1 1.30845 7.26819 495.833 0.763344 0.0700307 0.215977 0.604777 
1 1 470.176 484.699 481.108 0.0843189 0.765697 0.503831 0.390836 
ITEM: TIMESTEP
410000
ITEM: NUMBER OF ATOMS
5
ITEM: BOX BOUNDS pp pp pp
-5.0000000000000000e+02 5.0000000000000000e+02
-5.0000000000000000e+02 5.0000000000000000e+02
-5.0000000000000000e+02 5.0000000000000000e+02
ITEM: ATOMS id type x y z c_q[1] c_q[2] c_q[3] c_q[4] 
5 1 498.194 488.026 -17.751 0.598387 -0.0924985 0.529961 0.593732 
2 1 -8.38187 -494.933 494.057 0.903046 -0.0285749 0.0750587 0.42197 
3 1 483.183 -2.48515 496.907 -0.116161 0.684011 0.241747 0.678376 
4 1 0.594606 4.02645 498.173 0.762053 0.0390794 0.242879 0.598964 
1 1 472.459 483.717 480.844 0.160539 0.771446 0.494799 0.366431 
ITEM: TIMESTEP
420000
ITEM: NUMBER OF ATOMS
5
ITEM: BOX BOUNDS pp pp pp
-5.0000000000000000e+02 5.0000000000000000e+02
-5.0000000000000000e+02 5.0000000000000000e+02
-5.0000000000000000e+02 5.0000000000000000e+02
ITEM: ATOMS id type x y z c_q[1] c_q[2] c_q[3] c_q[4] 
5 1 496.616 488.246 -17.3182 0.593628 -0.11277 0.513199 0.609521 
2 1 -6.53794 -495.655 489.485 0.905479 -0.0529483 0.105032 0.407764 
3 1 475.034 -1.49753 497.151 -0.126386 0.713655 0.23767 0.646712 
4 1 -0.946464 7.50276 491.963 0.756872 0.110021 0.231638 0.601153 
1 1 466.724 481.206 480.76 0.192028 0.740451 0.512147 0.390592 
ITEM: TIMESTEP
430000
ITEM: NUMBER OF ATOMS
5
ITEM: BOX BOUNDS pp pp pp
-5.0000000000000000e+02 5.0000000000000000e+02
-5.0000000000000000e+02 5.0000000000000000e+02
-5.0000000000000000e+02 5.0000000000000000e+02
ITEM: ATOMS id type x y z c_q[1] c_q[2] c_q[3] c_q[4] 
5 1 498.729 489.881 -18.1703 0.583438 -0.0489548 0.551228 0.594433 
2 1 -7.59854 -498.181 489.44 0.905106 -0.0915852 0.0550762 0.411536 
3 1 475.729 -2.32155 490.256 -0.149428 0.703433 0.277586 0.637023 
4 1 -1.70258 5.15028 498.091 0.75881 0.115052 0.245749 0.592097 
1 1 475.436 482.915 481.765 0.206336 0.718647 0.512511 0.422262 
ITEM: TIMESTEP
440000
ITEM: NUMBER OF ATOMS
5
ITEM: BOX BOUNDS pp pp pp
-5.0000000000000000e+02 5.0000000000000000e+02
-5.0000000000000000e+02 5.0000000000000000e+02
-5.0000000000000000e+02 5.0000000000000000e+02
ITEM: ATOMS id type x y z c_q[1] c_q[2] c_q[3] c_q[4] 
4 1 -3.55461 3.13874 -498.202 0.763528 0.0969973 0.297602 0.564845 
5 1 494.165 494.201 -15.455 0.569608 -0.0438512 0.566962 0.593446 
3 1 471.797 -1.90834 494.778 -0.161569 0.70011 0.239995 0.652797 
2 1 -3.97164 500.019 486.594 0.903008 -0.0670986 0.0472709 0.421711 
1 1 473.696 480.705 480.458 0.239687 0.721772 0.505623 0.407358 
ITEM: TIMESTEP
450000
ITEM: NUMBER OF ATOMS
5
ITEM: BOX BOUNDS pp pp pp
-5.0000000000000000e+02 5.0000000000000000e+02
-5.0000000000000000e+02 5.0000000000000000e+02
-5.0000000000000000e+02 5.0000000000000000e+02
ITEM: ATOMS id type x y z c_q[1] c_q[2] c_q[3] c_q[4] 
5 1 490.024 498.496 -16.5963 0.598247 -0.0325403 0.549643 0.582181 
2 1 -5.36471 -496.665 487.705 0.901336 -0.125228 0.0274953 0.413709 
4 1 -7.51891 -2.71937 499.393 0.744314 0.141415 0.311028 0.573811 
3 1 474.007 0.766704 495.994 -0.164352 0.681263 0.26403 0.662689 
1 1 470.784 479.386 479.189 0.25885 0.722246 0.496884 0.405543 
ITEM: TIMESTEP
460000
ITEM: NUMBER OF ATOMS
5
ITEM: BOX BOUNDS pp pp pp
-5.0000000000000000e+02 5.0000000000000000e+02
-5.0000000000000000e+02 5.0000000000000000e+02
-5.0000000000000000e+02 5.0000000000000000e+02
ITEM: ATOMS id type x y z c_q[1] c_q[2] c_q[3] c_q[4] 
5 1 486.236 494.629 -22.9654 0.598996 -0.0720257 0.531309 0.59475 
2 1 -5.49672 -491.4 488.959 0.902717 -0.123785 0.0535426 0.408549 
4 1 -7.96538 -6.08035 490.39 0.755414 0.11032 0.323502 0.55904 
3 1 473.752 3.01954 499.158 -0.188723 0.665006 0.282851 0.66494 
1 1 471.705 482.971 476.215 0.252305 0.747743 0.475335 0.388946 
ITEM: TIMESTEP
470000
ITEM: NUMBER OF ATOMS
5
ITEM: BOX BOUNDS pp pp pp
-5.0000000000000000e+02 5.0000000000000000e+02
-5.0000000000000000e+02 5.0000000000000000e+02
-5.0000000000000000e+02 5.0000000000000000e+02
ITEM: ATOMS id type x y z c_q[1] c_q[2] c_q[3] c_q[4] 
5 1 487.599 496.796 -20.4432 0.622552 -0.0575614 0.540026 0.56346 
2 1 -5.44518 -488.892 493.16 0.930931 -0.146264 -0.00157886 0.334623 
4 1 -8.18868 -6.89151 489.861 0.775943 0.110703 0.315746 0.534753 
3 1 477.883 0.84793 492.754 -0.169371 0.662265 0.247261 0.686717 
1 1 474.374 486.413 484.198 0.226054 0.739831 0.534112 0.34099 
ITEM: TIMESTEP
480000
ITEM: NUMBER OF ATOMS
5
ITEM: BOX BOUNDS pp pp pp
-5.0000000000000000e+02 5.0000000000000000e+02
-5.0000000000000000e+02 5.0000000000000000e+02
-5.0000000000000000e+02 5.0000000000000000e+02
ITEM: ATOMS id type x y z c_q[1] c_q[2] c_q[3] c_q[4] 
5 1 487.783 -496.554 -20.733 0.622121 -0.068547 0.514037 0.586544 
2 1 -8.24229 -487.377 492.073 0.920005 -0.147346 -0.0253787 0.362264 
4 1 -8.01592 -12.8368 489.998 0.776578 0.117069 0.286531 0.548746 
3 1 477.155 3.7849 499.112 -0.173824 0.661919 0.231366 0.691461 
1 1 470.434 486.632 492.088 0.240935 0.744372 0.506611 0.362224 
ITEM: TIMESTEP
490000
ITEM: NUMBER OF ATOMS
5
ITEM: BOX BOUNDS pp pp pp
-5.0000000000000000e+02 5.0000000000000000e+02
-5.0000000000000000e+02 5.0000000000000000e+02
-5.0000000000000000e+02 5.0000000000000000e+02
ITEM: ATOMS id type x y z c_q[1] c_q[2] c_q[3] c_q[4] 
5 1 487.905 -495.317 -25.6738 0.636086 -0.0774309 0.530954 0.554514 
2 1 -11.9045 -488.232 493.455 0.931095 -0.140196 -0.0443751 0.333822 
4 1 -10.8425 -18.7557 486.828 0.751586 0.108101 0.298248 0.578343 
3 1 477.625 5.48496 498 -0.259659 0.686773 0.253832 0.629674 
1 1 469.377 484.087 492.8 0.259403 0.752144 0.479873 0.369746 
ITEM: TIMESTEP
500000
ITEM: NUMBER OF ATOMS
5