ITEM: TIMESTEP
0
ITEM: NUMBER OF ATOMS
60
ITEM: BOX BOUNDS
-500.000000 500.000000
-500.000000 500.000000
-500.000000 500.000000
ITEM: ATOMS id type x y z c_q[1] c_q[2] c_q[3] c_q[4]
1 1 -500.000000 -500.000000 -500.000000 0.528386 0.210094 0.764202 0.304408
2 1 -250.000000 -500.000000 -500.000000 0.096220 0.327367 0.651598 0.677489
3 1 0.000000 -500.000000 -500.000000 0.282665 0.714225 0.389876 0.507917
4 1 250.000000 -500.000000 -500.000000 0.441140 0.485295 0.307114 0.689613
5 1 -500.000000 -250.000000 -500.000000 0.219892 0.808402 0.292291 0.461195
6 1 -250.000000 -250.000000 -500.000000 0.179901 0.518936 0.475910 0.686914
7 1 0.000000 -250.000000 -500.000000 0.067622 0.246940 0.710083 0.655920
8 1 250.000000 -250.000000 -500.000000 0.079235 0.613750 0.272809 0.736620
9 1 -500.000000 0.000000 -500.000000 0.712651 0.611134 0.202406 0.278702
10 1 -250.000000 0.000000 -500.000000 0.680113 0.493988 0.187480 0.508206
11 1 0.000000 0.000000 -500.000000 0.319208 0.847111 0.395185 0.156006
12 1 250.000000 0.000000 -500.000000 0.619318 0.150738 0.641391 0.427014
13 1 -500.000000 250.000000 -500.000000 0.582335 0.790113 0.183385 0.054573
14 1 -250.000000 250.000000 -500.000000 0.188623 0.542118 0.666222 0.476108
15 1 0.000000 250.000000 -500.000000 0.433962 0.480976 0.638681 0.415241
16 1 250.000000 250.000000 -500.000000 0.737763 0.560312 0.288201 0.242274
17 1 -500.000000 -500.000000 -250.000000 0.200609 0.481387 0.573211 0.632021
18 1 -250.000000 -500.000000 -250.000000 0.317332 0.378395 0.855629 0.154973
19 1 0.000000 -500.000000 -250.000000 0.498544 0.361338 0.273426 0.739004
20 1 250.000000 -500.000000 -250.000000 0.279960 0.193567 0.938579 0.056773
21 1 -500.000000 -250.000000 -250.000000 0.424023 0.683527 0.256082 0.536113
22 1 -250.000000 -250.000000 -250.000000 0.085300 0.866276 0.366496 0.328590
23 1 0.000000 -250.000000 -250.000000 0.320788 0.360057 0.804635 0.346434
24 1 250.000000 -250.000000 -250.000000 0.611488 0.466929 0.596474 0.228645
25 1 -500.000000 0.000000 -250.000000 0.232407 0.236512 0.760355 0.558489
26 1 -250.000000 0.000000 -250.000000 0.660736 0.569009 0.413624 0.261863
27 1 0.000000 0.000000 -250.000000 0.346540 0.437004 0.608378 0.564636
28 1 250.000000 0.000000 -250.000000 0.727765 0.037805 0.368685 0.577062
29 1 -500.000000 250.000000 -250.000000 0.608923 0.333171 0.626456 0.354629
30 1 -250.000000 250.000000 -250.000000 0.843784 0.404883 0.213530 0.280184
31 1 0.000000 250.000000 -250.000000 0.587107 0.428952 0.658766 0.193218
32 1 250.000000 250.000000 -250.000000 0.368953 0.473571 0.735216 0.314740
33 1 -500.000000 -500.000000 0.000000 0.192841 0.470649 0.041309 0.859997
34 1 -250.000000 -500.000000 0.000000 0.342366 0.301029 0.273510 0.846971
35 1 0.000000 -500.000000 0.000000 0.765669 0.348686 0.507350 0.186456
36 1 250.000000 -500.000000 0.000000 0.789965 0.536149 0.229969 0.188714
37 1 -500.000000 -250.000000 0.000000 0.358192 0.792215 0.384516 0.310228
38 1 -250.000000 -250.000000 0.000000 0.579831 0.521385 0.617748 0.101697
39 1 0.000000 -250.000000 0.000000 0.386908 0.526108 0.339476 0.676955
40 1 250.000000 -250.000000 0.000000 0.407734 0.669754 0.116619 0.609576
41 1 -500.000000 0.000000 0.000000 0.142196 0.703812 0.688417 0.102519
42 1 -250.000000 0.000000 0.000000 0.331644 0.649147 0.387785 0.564131
43 1 0.000000 0.000000 0.000000 0.486126 0.605729 0.529835 0.340661
44 1 250.000000 0.000000 0.000000 0.624409 0.576319 0.421231 0.317071
45 1 -500.000000 250.000000 0.000000 0.482226 0.482939 0.483076 0.548512
46 1 -250.000000 250.000000 0.000000 0.516642 0.600599 0.575681 0.202371
47 1 0.000000 250.000000 0.000000 0.357999 0.499991 0.758733 0.214869
48 1 250.000000 250.000000 0.000000 0.421358 0.679268 0.584142 0.140821
49 1 -500.000000 -500.000000 250.000000 0.593532 0.291123 0.146828 0.735805
50 1 -250.000000 -500.000000 250.000000 0.916156 0.292994 0.132544 0.239258
51 1 0.000000 -500.000000 250.000000 0.223945 0.326542 0.619904 0.677450
52 1 250.000000 -500.000000 250.000000 0.162488 0.202366 0.960703 0.098462
53 1 -500.000000 -250.000000 250.000000 0.019671 0.954581 0.050556 0.292972
54 1 -250.000000 -250.000000 250.000000 0.842909 0.521376 0.003170 0.132896
55 1 0.000000 -250.000000 250.000000 0.521551 0.417368 0.439266 0.600695
56 1 250.000000 -250.000000 250.000000 0.066376 0.254687 0.517403 0.814262
57 1 -500.000000 0.000000 250.000000 0.429346 0.006418 0.901631 0.051793
58 1 -250.000000 0.000000 250.000000 0.375618 0.403321 0.270583 0.789321
59 1 0.000000 0.000000 250.000000 0.742456 0.415581 0.491295 0.186227
60 1 250.000000 0.000000 250.000000 0.048708 0.543604 0.516386 0.659899
