LAMMPS data file

30 atoms
30 ellipsoids
0 bonds
0 angles
0 dihedrals

1 atom types
0 bond types
0 angle types
0 dihedral types

-500.000000 500.000000 xlo xhi
-500.000000 500.000000 ylo yhi
-500.000000 500.000000 zlo zhi

Masses

1 203166.000000

Atoms

1 1 -500.000000 -500.000000 -500.000000 1 1.000000 3 0.000000
2 1 -250.000000 -500.000000 -500.000000 1 1.000000 4 0.000000
3 1 0.000000 -500.000000 -500.000000 1 1.000000 5 0.000000
4 1 250.000000 -500.000000 -500.000000 1 1.000000 6 0.000000
5 1 -500.000000 -250.000000 -500.000000 1 1.000000 7 0.000000
6 1 -250.000000 -250.000000 -500.000000 1 1.000000 8 0.000000
7 1 0.000000 -250.000000 -500.000000 1 1.000000 9 0.000000
8 1 250.000000 -250.000000 -500.000000 1 1.000000 10 0.000000
9 1 -500.000000 0.000000 -500.000000 1 1.000000 11 0.000000
10 1 -250.000000 0.000000 -500.000000 1 1.000000 12 0.000000
11 1 0.000000 0.000000 -500.000000 1 1.000000 13 0.000000
12 1 250.000000 0.000000 -500.000000 1 1.000000 14 0.000000
13 1 -500.000000 250.000000 -500.000000 1 1.000000 15 0.000000
14 1 -250.000000 250.000000 -500.000000 1 1.000000 16 0.000000
15 1 0.000000 250.000000 -500.000000 1 1.000000 17 0.000000
16 1 250.000000 250.000000 -500.000000 1 1.000000 18 0.000000
17 1 -500.000000 -500.000000 -250.000000 1 1.000000 19 0.000000
18 1 -250.000000 -500.000000 -250.000000 1 1.000000 20 0.000000
19 1 0.000000 -500.000000 -250.000000 1 1.000000 21 0.000000
20 1 250.000000 -500.000000 -250.000000 1 1.000000 22 0.000000
21 1 -500.000000 -250.000000 -250.000000 1 1.000000 23 0.000000
22 1 -250.000000 -250.000000 -250.000000 1 1.000000 24 0.000000
23 1 0.000000 -250.000000 -250.000000 1 1.000000 25 0.000000
24 1 250.000000 -250.000000 -250.000000 1 1.000000 26 0.000000
25 1 -500.000000 0.000000 -250.000000 1 1.000000 27 0.000000
26 1 -250.000000 0.000000 -250.000000 1 1.000000 28 0.000000
27 1 0.000000 0.000000 -250.000000 1 1.000000 29 0.000000
28 1 250.000000 0.000000 -250.000000 1 1.000000 30 0.000000
29 1 -500.000000 250.000000 -250.000000 1 1.000000 31 0.000000
30 1 -250.000000 250.000000 -250.000000 1 1.000000 32 0.000000

Ellipsoids

1 55.000000 110.000000 110.000000 0.274402 0.495026 0.823803 0.031645
2 55.000000 110.000000 110.000000 0.590724 0.469702 0.331807 0.565976
3 55.000000 110.000000 110.000000 0.673624 0.270366 0.650209 0.224412
4 55.000000 110.000000 110.000000 0.655301 0.308024 0.653710 0.219922
5 55.000000 110.000000 110.000000 0.653117 0.450260 0.002286 0.608850
6 55.000000 110.000000 110.000000 0.342655 0.937490 0.047844 0.037565
7 55.000000 110.000000 110.000000 0.830704 0.130821 0.489217 0.231265
8 55.000000 110.000000 110.000000 0.330113 0.641072 0.068330 0.689480
9 55.000000 110.000000 110.000000 0.795495 0.119876 0.087079 0.587567
10 55.000000 110.000000 110.000000 0.308798 0.040636 0.759648 0.570901
11 55.000000 110.000000 110.000000 0.099196 0.939285 0.164916 0.284089
12 55.000000 110.000000 110.000000 0.300595 0.411162 0.444338 0.736988
13 55.000000 110.000000 110.000000 0.223081 0.700227 0.669447 0.108433
14 55.000000 110.000000 110.000000 0.660666 0.717219 0.195935 0.103570
15 55.000000 110.000000 110.000000 0.441506 0.689722 0.092834 0.566338
16 55.000000 110.000000 110.000000 0.524788 0.319678 0.532968 0.581678
17 55.000000 110.000000 110.000000 0.572884 0.729659 0.296822 0.226492
18 55.000000 110.000000 110.000000 0.825114 0.099832 0.524031 0.186043
19 55.000000 110.000000 110.000000 0.306183 0.844242 0.095391 0.429427
20 55.000000 110.000000 110.000000 0.662470 0.377761 0.256779 0.593712
21 55.000000 110.000000 110.000000 0.192598 0.403933 0.011412 0.894211
22 55.000000 110.000000 110.000000 0.705661 0.367421 0.605199 0.027900
23 55.000000 110.000000 110.000000 0.398728 0.822503 0.376884 0.149881
24 55.000000 110.000000 110.000000 0.175747 0.857089 0.176515 0.450948
25 55.000000 110.000000 110.000000 0.359882 0.414850 0.675009 0.492693
26 55.000000 110.000000 110.000000 0.573813 0.110467 0.421554 0.693418
27 55.000000 110.000000 110.000000 0.886370 0.424165 0.046441 0.179654
28 55.000000 110.000000 110.000000 0.803573 0.384401 0.082397 0.446898
29 55.000000 110.000000 110.000000 0.239968 0.505846 0.827585 0.040475
30 55.000000 110.000000 110.000000 0.404723 0.706757 0.527169 0.242459




