ITEM: TIMESTEP
0
ITEM: NUMBER OF ATOMS
20
ITEM: BOX BOUNDS pp pp pp
-5.0000000000000000e+02 5.0000000000000000e+02
-5.0000000000000000e+02 5.0000000000000000e+02
-5.0000000000000000e+02 5.0000000000000000e+02
ITEM: ATOMS id type x y z c_q[1] c_q[2] c_q[3] c_q[4] 
1 1 -500 -500 -500 0.415383 0.594105 0.361146 0.586575 
2 1 -166.667 -500 -500 0.176787 0.740141 0.311862 0.568928 
3 1 166.667 -500 -500 0.681295 0.621667 0.149587 0.356357 
4 1 -500 -166.667 -500 0.076347 0.924261 0.260622 0.268306 
5 1 -166.667 -166.667 -500 0.050322 0.356599 0.577388 0.732754 
6 1 166.667 -166.667 -500 0.688981 0.26018 0.257753 0.62544 
7 1 -500 166.667 -500 0.088508 0.051854 0.919713 0.378954 
8 1 -166.667 166.667 -500 0.562345 0.493066 0.081119 0.658843 
9 1 166.667 166.667 -500 0.270279 0.858293 0.200635 0.387335 
10 1 -500 -500 -166.667 0.196757 0.419365 0.128172 0.876922 
11 1 -166.667 -500 -166.667 0.256254 0.619725 0.411183 0.617417 
12 1 166.667 -500 -166.667 0.563842 0.659135 0.167682 0.468515 
13 1 -500 -166.667 -166.667 0.212235 0.657869 0.126081 0.711525 
14 1 -166.667 -166.667 -166.667 0.560557 0.030513 0.579301 0.590978 
15 1 166.667 -166.667 -166.667 0.848623 0.062002 0.428929 0.30334 
16 1 -500 166.667 -166.667 0.078158 0.490172 0.519478 0.695533 
17 1 -166.667 166.667 -166.667 0.567468 0.005737 0.571624 0.592615 
18 1 166.667 166.667 -166.667 0.451557 0.640976 0.205624 0.585632 
19 1 -500 -500 166.667 0.380689 0.562023 0.290609 0.674354 
20 1 -166.667 -500 166.667 0.070581 0.820326 0.256489 0.506257 
ITEM: TIMESTEP
10000
ITEM: NUMBER OF ATOMS
20
ITEM: BOX BOUNDS pp pp pp
-5.0000000000000000e+02 5.0000000000000000e+02
-5.0000000000000000e+02 5.0000000000000000e+02
-5.0000000000000000e+02 5.0000000000000000e+02
ITEM: ATOMS id type x y z c_q[1] c_q[2] c_q[3] c_q[4] 
9 1 168.561 170.704 -497.092 0.289223 0.837439 0.199483 0.418631 
14 1 -170.251 -169.195 -168.337 0.53579 -0.00463601 0.584823 0.609007 
13 1 493.92 -172.077 -171.057 0.275865 0.679026 0.112139 0.671004 
15 1 164.34 -166.19 -169.503 0.846036 0.0493456 0.42019 0.324389 
17 1 -165.664 161.829 -172.004 0.605563 0.00151961 0.579794 0.545096 
10 1 -498.152 495.793 -171.037 0.159094 0.41041 0.141798 0.886649 
11 1 -167.246 496.759 -171.447 0.203941 0.589037 0.418109 0.660778 
16 1 499.308 164.243 -164.629 0.0517658 0.506597 0.519053 0.686487 
18 1 175.059 167.096 -159.142 0.470312 0.62414 0.227024 0.581134 
12 1 166.622 497.401 -163.776 0.554249 0.682748 0.191086 0.436061 
19 1 -493.256 494.321 161.494 0.398897 0.542333 0.252893 0.694839 
20 1 -171.652 497.626 166.308 0.0655927 0.805926 0.27318 0.521108 
2 1 -166.39 -499.608 498.105 0.197511 0.750203 0.372639 0.50924 
6 1 166.825 -168.949 498.566 0.686401 0.266851 0.230556 0.635994 
4 1 -498.211 -163.116 498.476 0.0532272 0.938922 0.244475 0.236272 
5 1 -166.783 -165.366 496.771 0.0730475 0.357062 0.580765 0.727931 
7 1 -497.439 166.434 -499.548 0.110686 0.0268401 0.916561 0.383333 
8 1 -160.329 166.978 496.271 0.530972 0.540874 0.133169 0.638584 
1 1 -497.903 495.586 -499.693 0.429123 0.620723 0.350911 0.554452 
3 1 167.593 497.261 499.006 0.667463 0.612922 0.168893 0.387678 
ITEM: TIMESTEP
20000
ITEM: NUMBER OF ATOMS
20
ITEM: BOX BOUNDS pp pp pp
-5.0000000000000000e+02 5.0000000000000000e+02
-5.0000000000000000e+02 5.0000000000000000e+02
-5.0000000000000000e+02 5.0000000000000000e+02
ITEM: ATOMS id type x y z c_q[1] c_q[2] c_q[3] c_q[4] 
1 1 -498.727 -497.622 -497.143 0.344288 0.654899 0.396744 0.543292 
2 1 -161.521 -496.481 -499.525 0.216925 0.751819 0.360847 0.507446 
4 1 -499.543 -161.612 499.879 0.0948635 0.914788 0.280759 0.27448 
9 1 171.456 169.886 -498.168 0.291591 0.856907 0.173172 0.388198 
3 1 164.002 496.764 -494.284 0.654799 0.613682 0.169056 0.407497 
13 1 493.771 -172.747 -169.278 0.26912 0.715738 0.0712024 0.640488 
14 1 -175.545 -165.257 -170.447 0.529242 -0.0156887 0.597641 0.602065 
15 1 162.434 -166.852 -169.577 0.82765 0.0260779 0.414533 0.377462 
17 1 -161.171 163.209 -171.432 0.596041 0.0148061 0.559975 0.575278 
10 1 -493.431 491.843 -169.197 0.179286 0.415875 0.139962 0.88052 
11 1 -171.516 494.879 -169.012 0.213757 0.583584 0.413863 0.665173 
12 1 161.09 498.277 -166.574 0.571172 0.681296 0.136919 0.436865 
16 1 -498.77 162.363 -161.128 0.0397988 0.530862 0.499177 0.683685 
18 1 172.222 169.875 -163.735 0.462559 0.581668 0.239766 0.624672 
19 1 -496.23 490.85 168.397 0.402705 0.549732 0.267763 0.681122 
20 1 -174.725 496.303 171.981 0.0397838 0.799853 0.286616 0.525836 
6 1 172.901 -167.182 498.371 0.670677 0.303208 0.20224 0.646031 
5 1 -165.535 -161.515 497.207 0.0895437 0.325456 0.556927 0.758876 
7 1 -497.95 163.93 495.4 0.137105 0.0491798 0.906706 0.395813 
8 1 -161.067 169.338 492.802 0.54925 0.547959 0.124797 0.618458 
ITEM: TIMESTEP
30000
ITEM: NUMBER OF ATOMS
20
ITEM: BOX BOUNDS pp pp pp
-5.0000000000000000e+02 5.0000000000000000e+02
-5.0000000000000000e+02 5.0000000000000000e+02
-5.0000000000000000e+02 5.0000000000000000e+02
ITEM: ATOMS id type x y z c_q[1] c_q[2] c_q[3] c_q[4] 
1 1 -495.337 -495.091 -493.454 0.355664 0.652155 0.343474 0.57465 
2 1 -162.877 -494.509 -498.956 0.248729 0.744985 0.321699 0.528811 
6 1 172.448 -162.245 -499.727 0.665482 0.287383 0.234833 0.64761 
7 1 -491.36 163.038 498.424 0.165241 0.0244556 0.90387 0.393849 
9 1 173.325 168.214 -495.878 0.25715 0.864714 0.184692 0.389913 
3 1 161.172 493.876 -493.001 0.658412 0.633139 0.19757 0.355801 
14 1 -171.605 -167.353 -172.407 0.519059 -0.0648554 0.599082 0.606195 
15 1 158.347 -172.607 -168.591 0.821487 0.0368632 0.423875 0.379644 
13 1 489.342 -178.071 -170.019 0.245814 0.750541 0.123696 0.600801 
17 1 -161.434 161.597 -173.892 0.600872 0.0193028 0.524724 0.602698 
10 1 -488.884 493.017 -170.629 0.211202 0.440914 0.152015 0.858999 
16 1 -495.251 156.804 -162.764 0.0722683 0.55678 0.510179 0.65153 
18 1 172.141 163.926 -162.877 0.495176 0.579338 0.22627 0.606606 
11 1 -173.9 495.681 -165.478 0.24971 0.572828 0.426208 0.65411 
12 1 163.831 498.506 -167.359 0.556416 0.6649 0.186407 0.462127 
20 1 -169.026 490.976 174.095 0.0318336 0.785936 0.32704 0.523771 
19 1 498.711 490.212 169.413 0.404601 0.548985 0.275613 0.677459 
4 1 -499.542 -157.785 499.539 0.13081 0.905147 0.315431 0.25318 
5 1 -172.778 -159.705 494.925 0.0604979 0.34159 0.55749 0.754229 
8 1 -157.38 171.464 498.05 0.542213 0.511068 0.11559 0.656851 
ITEM: TIMESTEP
40000
ITEM: NUMBER OF ATOMS
20
ITEM: BOX BOUNDS pp pp pp
-5.0000000000000000e+02 5.0000000000000000e+02
-5.0000000000000000e+02 5.0000000000000000e+02
-5.0000000000000000e+02 5.0000000000000000e+02
ITEM: ATOMS id type x y z c_q[1] c_q[2] c_q[3] c_q[4] 
1 1 -497.992 -493.51 -492.74 0.366912 0.668342 0.378363 0.524916 
6 1 177.891 -160.89 499.295 0.687502 0.222015 0.170313 0.670108 
9 1 177.428 172.3 -499.482 0.216402 0.850989 0.184266 0.441627 
3 1 161.729 495.546 -493.199 0.641159 0.636092 0.178662 0.390361 
12 1 158.542 -495.786 -169.757 0.570595 0.649371 0.161806 0.47598 
13 1 494.063 -179.435 -168.675 0.212515 0.74045 0.127616 0.624728 
14 1 -169.587 -163.915 -174.104 0.485447 -0.0701788 0.621103 0.611268 
17 1 -157.112 154.773 -173.377 0.661283 0.0193962 0.480922 0.575363 
10 1 -494.395 494.999 -170.306 0.219239 0.440007 0.183137 0.851345 
11 1 -177.266 489.854 -165.964 0.224478 0.590975 0.429978 0.644575 
15 1 160.842 -173.215 -166.043 0.814705 0.0645894 0.432433 0.380901 
16 1 -491.295 154.178 -164.297 0.0935344 0.558874 0.522589 0.637033 
18 1 171.946 164.765 -161.333 0.453474 0.622582 0.218654 0.599119 
19 1 -497.995 489.65 170.223 0.456851 0.532236 0.234131 0.673197 
20 1 -167.696 490.278 174.981 0.0280539 0.799333 0.25842 0.541755 
2 1 -163.407 -494.176 498.537 0.304192 0.703875 0.291623 0.571824 
5 1 -172.268 -159.405 493.917 0.0154047 0.339129 0.529409 0.777483 
4 1 499.444 -156.281 499.508 0.142583 0.886756 0.316822 0.304889 
7 1 -489.954 159.625 496.451 0.154495 0.0587391 0.909819 0.380672 
8 1 -161.67 174.74 498.865 0.543057 0.563844 0.180252 0.595548 
ITEM: TIMESTEP
50000
ITEM: NUMBER OF ATOMS
20
ITEM: BOX BOUNDS pp pp pp
-5.0000000000000000e+02 5.0000000000000000e+02
-5.0000000000000000e+02 5.0000000000000000e+02
-5.0000000000000000e+02 5.0000000000000000e+02
ITEM: ATOMS id type x y z c_q[1] c_q[2] c_q[3] c_q[4] 
1 1 499.556 -498.589 -495.202 0.372183 0.694844 0.316055 0.527997 
4 1 -497.456 -159.184 499.861 0.0925344 0.897886 0.302408 0.306247 
8 1 -166.933 175.81 -495.792 0.544998 0.574394 0.131994 0.596344 
3 1 159.166 493.171 -496.153 0.634685 0.653468 0.161127 0.379726 
12 1 152.655 -497.578 -171.694 0.571329 0.635927 0.172807 0.489201 
14 1 -168.641 -167.458 -171.63 0.469769 -0.0770323 0.621741 0.621949 
13 1 492.911 -175.434 -170 0.166134 0.741746 0.139224 0.634688 
17 1 -159.534 158.604 -175.19 0.613692 0.025092 0.507315 0.60447 
10 1 -494.612 496.222 -169.334 0.200411 0.446663 0.149808 0.859003 
11 1 -172.201 490.524 -170.168 0.247719 0.563268 0.431112 0.65993 
15 1 160.585 -170.133 -165.959 0.840781 0.0813564 0.415552 0.337321 
16 1 -486.03 153.25 -160.26 0.101685 0.515391 0.533221 0.663105 
18 1 175.721 166.112 -160.348 0.450858 0.589697 0.2513 0.621155 
19 1 -499.46 490.381 172.649 0.444441 0.533372 0.221382 0.684819 
20 1 -169.576 490.64 177.046 0.0499935 0.802472 0.246888 0.540912 
2 1 -158.025 -492.597 499.028 0.338361 0.676821 0.248693 0.60463 
5 1 -168.455 -165.048 497.454 -0.0213769 0.313284 0.541882 0.77959 
6 1 180.501 -164.379 496.695 0.706753 0.208357 0.0980578 0.668933 
7 1 -489.882 159.223 495.388 0.181303 0.0685722 0.910213 0.365976 
9 1 179.476 172.55 494.152 0.25709 0.851104 0.165289 0.426855 
ITEM: TIMESTEP
60000
ITEM: NUMBER OF ATOMS
20
ITEM: BOX BOUNDS pp pp pp
-5.0000000000000000e+02 5.0000000000000000e+02
-5.0000000000000000e+02 5.0000000000000000e+02
-5.0000000000000000e+02 5.0000000000000000e+02
ITEM: ATOMS id type x y z c_q[1] c_q[2] c_q[3] c_q[4] 
1 1 -497.793 498.564 -493.892 0.400206 0.653889 0.34587 0.54096 
2 1 -158.213 -490.065 -497.84 0.286145 0.677429 0.267949 0.622426 
8 1 -168.981 177.471 -499.016 0.583756 0.537354 0.0786116 0.603572 
3 1 159.443 495.193 -496.545 0.608434 0.667208 0.176661 0.391705 
12 1 150.755 -496.589 -169.958 0.567619 0.645237 0.150802 0.488607 
15 1 154.9 -169.055 -168.236 0.821455 0.110872 0.457753 0.321529 
13 1 491.864 -176.003 -170.663 0.140097 0.754856 0.136671 0.626008 
14 1 -172.454 -165.873 -169.78 0.426391 -0.0412076 0.629948 0.647811 
17 1 -160.86 159.279 -179.517 0.604059 -0.0116377 0.564161 0.562761 
10 1 -495.157 495.087 -166.783 0.206581 0.420127 0.135839 0.873135 
11 1 -171.811 492.021 -170.132 0.249382 0.55721 0.381008 0.694376 
16 1 -490.586 153.276 -161.121 0.088527 0.490476 0.526098 0.68907 
18 1 180.015 168.679 -157.637 0.468719 0.603848 0.224252 0.604468 
20 1 -168.642 495.624 177.274 0.0224605 0.799429 0.263521 0.539412 
19 1 496.924 491.269 172.454 0.432678 0.532956 0.230825 0.689542 
4 1 -498.63 -155.816 499.188 0.13533 0.875218 0.278706 0.371485 
5 1 -167.734 -166.204 493.651 0.00645023 0.310498 0.524973 0.792435 
6 1 185.026 -160.283 493.87 0.696549 0.230836 0.12057 0.668578 
7 1 -491.937 157.316 498.431 0.145719 0.0321098 0.912543 0.380788 
9 1 179.342 167.801 490.813 0.216929 0.854332 0.153675 0.446591 
ITEM: TIMESTEP
70000
ITEM: NUMBER OF ATOMS
20
ITEM: BOX BOUNDS pp pp pp
-5.0000000000000000e+02 5.0000000000000000e+02
-5.0000000000000000e+02 5.0000000000000000e+02
-5.0000000000000000e+02 5.0000000000000000e+02
ITEM: ATOMS id type x y z c_q[1] c_q[2] c_q[3] c_q[4] 
2 1 -165.687 -487.986 -494.169 0.303536 0.685664 0.253707 0.611034 
8 1 -169.056 173.767 -496.245 0.607788 0.536902 0.0888524 0.578304 
1 1 -498.211 496.182 -494.01 0.408423 0.64883 0.336013 0.547089 
3 1 159.571 497.445 -493.569 0.627599 0.65526 0.100684 0.408187 
13 1 490.12 -176.024 -174.782 0.162422 0.755572 0.105003 0.625862 
14 1 -171.996 -156.114 -170.608 0.414959 -0.0448409 0.645032 0.640103 
17 1 -165.111 162.834 -179.025 0.630701 -0.0125059 0.568681 0.527884 
10 1 -496.09 498.664 -166.547 0.200831 0.403859 0.136578 0.881993 
11 1 -171.47 489.746 -169.686 0.239758 0.539079 0.358975 0.72322 
12 1 155.476 -496.902 -165.802 0.514823 0.696939 0.148325 0.476689 
15 1 152.1 -158.463 -159.677 0.84514 0.11589 0.401922 0.332817 
16 1 -486.374 155.989 -166.407 0.06707 0.488543 0.546044 0.677247 
18 1 178.222 169.835 -157.909 0.462256 0.588742 0.255261 0.612001 
20 1 -163.165 489.156 177.424 0.0356826 0.779575 0.291756 0.553053 
19 1 499.115 491.818 177.203 0.464805 0.576588 0.181426 0.646983 
5 1 -164.383 -168.662 493.722 -0.00401798 0.268128 0.533271 0.802317 
4 1 -497.082 -157.366 499.805 0.130774 0.878568 0.286345 0.359198 
6 1 189.34 -159.085 495.689 0.695014 0.275587 0.0947188 0.657294 
7 1 -488.67 158.542 495.4 0.148774 0.0583652 0.904894 0.394495 
9 1 179.576 169.807 491.488 0.208193 0.843744 0.215062 0.445533 
ITEM: TIMESTEP
80000
ITEM: NUMBER OF ATOMS
20
ITEM: BOX BOUNDS pp pp pp
-5.0000000000000000e+02 5.0000000000000000e+02
-5.0000000000000000e+02 5.0000000000000000e+02
-5.0000000000000000e+02 5.0000000000000000e+02
ITEM: ATOMS id type x y z c_q[1] c_q[2] c_q[3] c_q[4] 
2 1 -165.947 -490.067 -496.462 0.271507 0.662769 0.289556 0.634963 
4 1 -498.962 -158.122 -499.295 0.157701 0.898372 0.220571 0.345552 
8 1 -170.808 173.655 -491.141 0.583751 0.515798 0.105778 0.61806 
1 1 -496.976 494.682 -490.225 0.387995 0.693888 0.362362 0.486491 
3 1 161.612 496.118 -493.259 0.626559 0.657662 0.098263 0.406508 
13 1 487.963 -170.752 -173.338 0.123079 0.775633 0.108325 0.609517 
14 1 -170.674 -157.553 -166.615 0.411221 -0.0722022 0.628042 0.656695 
16 1 -485.533 157.806 -168.21 0.041447 0.490354 0.552055 0.673105 
17 1 -164.954 158.03 -175.584 0.611996 0.0159835 0.593916 0.521986 
10 1 -493.65 497.275 -168.754 0.173388 0.425377 0.130162 0.878663 
11 1 -171.876 488.5 -175.249 0.231197 0.564399 0.368451 0.701602 
12 1 158.357 -496.489 -164.703 0.471385 0.714986 0.181635 0.483321 
15 1 150.354 -154.884 -163.247 0.852952 0.0752385 0.405726 0.319685 
18 1 183.598 172.268 -162.419 0.477753 0.576497 0.239801 0.61798 
19 1 -499.994 495.079 177.03 0.462747 0.610379 0.196314 0.61218 
20 1 -163.974 489.666 175.443 0.0217958 0.785972 0.290702 0.54522 
5 1 -163.958 -173.748 493.177 -0.0499565 0.278984 0.573371 0.768712 
6 1 186.773 -160.457 491.04 0.663111 0.276512 0.0730274 0.691731 
7 1 -490.08 156.864 494.859 0.135307 0.124818 0.906442 0.3801 
9 1 179.093 165.085 489.033 0.227559 0.81449 0.24752 0.472818 
ITEM: TIMESTEP
90000
ITEM: NUMBER OF ATOMS
20
ITEM: BOX BOUNDS pp pp pp
-5.0000000000000000e+02 5.0000000000000000e+02
-5.0000000000000000e+02 5.0000000000000000e+02
-5.0000000000000000e+02 5.0000000000000000e+02
ITEM: ATOMS id type x y z c_q[1] c_q[2] c_q[3] c_q[4] 
2 1 -168.397 -488.139 -499.892 0.252755 0.653958 0.297145 0.648196 
4 1 -498.964 -161.113 -500.032 0.192251 0.899887 0.193925 0.340053 
8 1 -167.293 175.747 -488.084 0.549603 0.494981 0.100416 0.665467 
1 1 -494.009 494.433 -488.746 0.344933 0.713593 0.392642 0.466518 
3 1 159.774 495.611 -492.915 0.624169 0.654685 0.101762 0.414059 
13 1 486.312 -172.239 -180.288 0.133855 0.772892 0.0923656 0.613343 
16 1 -483.918 159.749 -166.574 0.0508868 0.526739 0.519269 0.671056 
17 1 -165.734 154.406 -169.581 0.629227 0.0203435 0.567918 0.530216 
10 1 -493.342 496.431 -169.308 0.123602 0.442162 0.138835 0.877462 
11 1 -174.599 489.456 -174.368 0.220718 0.542228 0.389681 0.71093 
14 1 -172.534 -154.186 -166.536 0.448119 -0.078598 0.596992 0.660766 
15 1 155.785 -157.81 -160.309 0.867802 0.0889223 0.364031 0.326334 
18 1 189.306 176.95 -162.758 0.467058 0.614642 0.262269 0.57904 
12 1 163.825 497.574 -168.419 0.489096 0.705881 0.180458 0.479533 
20 1 -165.464 489.271 177.205 0.0217863 0.80453 0.314634 0.503252 
19 1 495.094 493.087 178.58 0.421578 0.622894 0.234206 0.615973 
5 1 -166.016 -178.526 487.645 0.0207205 0.258504 0.616362 0.743535 
6 1 190.285 -162.359 491.126 0.635001 0.278918 0.0285274 0.719837 
7 1 -491.795 154.866 494.792 0.0694477 0.140356 0.916815 0.367326 
9 1 176.636 162.779 489.444 0.216831 0.819938 0.229678 0.477425 
ITEM: TIMESTEP
100000
ITEM: NUMBER OF ATOMS
20
ITEM: BOX BOUNDS pp pp pp
-5.0000000000000000e+02 5.0000000000000000e+02
-5.0000000000000000e+02 5.0000000000000000e+02
-5.0000000000000000e+02 5.0000000000000000e+02
ITEM: ATOMS id type x y z c_q[1] c_q[2] c_q[3] c_q[4] 
2 1 -166.325 -488.092 -499.828 0.247641 0.664124 0.339932 0.61811 
4 1 498.784 -156.756 -499.649 0.19997 0.885814 0.227851 0.351325 
8 1 -166.463 173.216 -493.68 0.586495 0.450237 0.0759404 0.668987 
1 1 -487.979 491.3 -487.008 0.371736 0.695097 0.391468 0.47477 
3 1 159.031 496.673 -490.274 0.633507 0.676293 0.0603605 0.371016 
13 1 489.371 -170.467 -186.565 0.145995 0.774612 0.106804 0.606016 
17 1 -165.98 161.976 -169.659 0.654898 0.011136 0.545346 0.523051 
18 1 191.502 172.766 -168.951 0.449711 0.586491 0.314673 0.595625 
11 1 -179.415 490.393 -174.377 0.21352 0.543498 0.366356 0.724432 
14 1 -173.244 -149.857 -161.438 0.444364 -0.116349 0.613243 0.642601 
15 1 155.993 -159.95 -156.689 0.868301 0.0600227 0.390231 0.300285 
16 1 -482.692 162.217 -165.048 0.0216435 0.532267 0.508314 0.676639 
10 1 -491.209 498.803 -163.563 0.11496 0.432294 0.147963 0.882051 
12 1 165.532 495.962 -165.255 0.482431 0.707699 0.17034 0.487244 
20 1 -165.993 488.57 177.766 0.0119213 0.759414 0.313982 0.569705 
19 1 498.855 491.694 186.357 0.451294 0.625746 0.21848 0.59753 
5 1 -167.098 -183.677 485.715 0.0175589 0.229613 0.623353 0.747262 
6 1 196.389 -165.6 488.608 0.573022 0.287445 0.0303697 0.766876 
7 1 -489.621 153.372 496.123 0.0397714 0.177403 0.914183 0.362236 
9 1 171.749 164.267 489.178 0.206146 0.824871 0.22751 0.47469 
ITEM: TIMESTEP
110000
ITEM: NUMBER OF ATOMS
20
ITEM: BOX BOUNDS pp pp pp
-5.0000000000000000e+02 5.0000000000000000e+02
-5.0000000000000000e+02 5.0000000000000000e+02
-5.0000000000000000e+02 5.0000000000000000e+02
ITEM: ATOMS id type x y z c_q[1] c_q[2] c_q[3] c_q[4] 
2 1 -167.018 -482.761 -493.174 0.241311 0.626299 0.409582 0.617868 
8 1 -168.974 173.155 -490.665 0.612262 0.465896 0.0731275 0.634609 
1 1 -485.676 496.808 -486.236 0.353342 0.71184 0.370788 0.480571 
3 1 162.278 499.495 -486.153 0.618014 0.669691 0.0243275 0.411074 
13 1 492.842 -175.264 -176.519 0.116325 0.791453 0.124582 0.586984 
17 1 -166.401 168.302 -171.853 0.635975 0.0700722 0.517303 0.568351 
18 1 190.857 169.941 -170.325 0.432689 0.615251 0.306795 0.583201 
11 1 -175.464 490.423 -176.89 0.279198 0.520132 0.371886 0.716388 
12 1 161.884 498.645 -168.819 0.479144 0.676922 0.26263 0.493177 
14 1 -175.971 -146.962 -160.368 0.40354 -0.147768 0.590942 0.68272 
15 1 152.697 -159.919 -161.897 0.876383 0.0881287 0.401704 0.250641 
16 1 -486.413 159.498 -164.73 0.0389275 0.528258 0.514488 0.674336 
10 1 -492.484 496.19 -163.577 0.096304 0.428229 0.162809 0.883651 
19 1 -498.208 494.447 184.437 0.478289 0.620283 0.177524 0.595797 
20 1 -170.126 486.453 177.458 0.0494355 0.745582 0.332912 0.575181 
5 1 -160.884 -186.304 484.469 0.0868086 0.266603 0.590228 0.75698 
6 1 193.46 -161.707 485.917 0.616095 0.265721 0.0322664 0.740796 
4 1 497.195 -156.047 496.655 0.231794 0.861872 0.245809 0.378187 
7 1 -490.212 160 496.904 0.0381729 0.167799 0.909269 0.378967 
9 1 169.551 159.214 494.855 0.148982 0.837441 0.209362 0.482352 
ITEM: TIMESTEP
120000
ITEM: NUMBER OF ATOMS
20
ITEM: BOX BOUNDS pp pp pp
-5.0000000000000000e+02 5.0000000000000000e+02
-5.0000000000000000e+02 5.0000000000000000e+02
-5.0000000000000000e+02 5.0000000000000000e+02
ITEM: ATOMS id type x y z c_q[1] c_q[2] c_q[3] c_q[4] 
2 1 -170.081 -483.027 -496.152 0.227553 0.612301 0.45216 0.607337 
4 1 494.927 -156.924 -498.848 0.253945 0.87245 0.218244 0.355968 
8 1 -168.732 169.057 -485.867 0.61416 0.471235 0.0470067 0.631297 
1 1 -484.147 489.449 -485.949 0.325706 0.729643 0.411848 0.438083 
3 1 155.571 495.775 -485.63 0.637259 0.651386 0.0591194 0.407556 
13 1 487.757 -172.076 -178.085 0.148941 0.761204 0.123869 0.618903 
17 1 -166.539 169.307 -174.682 0.622706 0.0634764 0.516535 0.584294 
18 1 186.57 167.048 -168.131 0.386543 0.577714 0.3696 0.616626 
11 1 -177.316 487.786 -176.09 0.290117 0.538932 0.420574 0.669702 
12 1 164 -497.651 -163.601 0.513986 0.631626 0.233167 0.531507 
14 1 -173.04 -149.11 -156.426 0.47104 -0.119414 0.600132 0.635376 
15 1 154.625 -158.066 -161.381 0.891144 0.107588 0.371523 0.237187 
16 1 -486.179 161.236 -164.659 0.0333688 0.525044 0.513183 0.678129 
10 1 -496.431 492.75 -162.513 0.0911086 0.464056 0.190754 0.860211 
19 1 -492.833 495.582 180.219 0.481325 0.593741 0.172691 0.621269 
20 1 -173.726 485.162 178.416 0.00720493 0.791111 0.321597 0.520256 
5 1 -158.566 -185.459 482.941 0.121074 0.271815 0.547602 0.782042 
6 1 190.965 -160.388 487.147 0.615743 0.246801 0.0681797 0.745185 
7 1 -489.103 155.157 496.084 0.0802716 0.127133 0.910501 0.385204 
9 1 171.806 163.175 497.911 0.167058 0.868591 0.186531 0.427606 
ITEM: TIMESTEP
130000
ITEM: NUMBER OF ATOMS
20
ITEM: BOX BOUNDS pp pp pp
-5.0000000000000000e+02 5.0000000000000000e+02
-5.0000000000000000e+02 5.0000000000000000e+02
-5.0000000000000000e+02 5.0000000000000000e+02
ITEM: ATOMS id type x y z c_q[1] c_q[2] c_q[3] c_q[4] 
2 1 -169.166 -481.849 -495.746 0.205502 0.624046 0.455766 0.60051 
4 1 494.28 -156.201 -497.146 0.253054 0.879983 0.225777 0.332592 
9 1 174.423 164.807 -493.831 0.194376 0.880038 0.172666 0.397413 
8 1 -168.861 170.619 -480.863 0.661144 0.480564 0.00166779 0.576146 
1 1 -482.623 488.66 -485.754 0.33612 0.696458 0.428484 0.467301 
3 1 149.998 498.484 -484.192 0.662787 0.621422 0.0371765 0.416133 
13 1 487.104 -171.687 -179.228 0.142735 0.746455 0.132328 0.636334 
18 1 184.658 165.657 -168.207 0.401512 0.515069 0.351745 0.670647 
17 1 -167.99 173.57 -173.964 0.638629 0.0770411 0.488522 0.589546 
11 1 -174.936 490.74 -177.212 0.263484 0.503173 0.435345 0.698476 
12 1 164.059 -494.658 -157.317 0.493705 0.626434 0.267594 0.540583 
14 1 -174.765 -147.604 -153.747 0.438027 -0.0777406 0.637365 0.62917 
15 1 152.639 -159.422 -160.405 0.899982 0.110594 0.364284 0.212363 
16 1 -491.281 167.021 -160.99 0.0124305 0.496032 0.520253 0.695079 
10 1 -491.801 493.739 -163.887 0.102012 0.457152 0.206673 0.859007 
19 1 -493.105 498.858 179.84 0.52574 0.582569 0.158664 0.599197 
20 1 -169.646 485.396 176.244 0.0115941 0.77601 0.338452 0.532094 
5 1 -157.28 -185.594 476.297 0.11935 0.230782 0.570363 0.779219 
6 1 193.928 -159.509 489.503 0.587794 0.27679 0.0484853 0.75864 
7 1 -488.89 154.579 495.607 0.0484783 0.10867 0.918812 0.376331 
ITEM: TIMESTEP
140000
ITEM: NUMBER OF ATOMS
20
ITEM: BOX BOUNDS pp pp pp
-5.0000000000000000e+02 5.0000000000000000e+02
-5.0000000000000000e+02 5.0000000000000000e+02
-5.0000000000000000e+02 5.0000000000000000e+02
ITEM: ATOMS id type x y z c_q[1] c_q[2] c_q[3] c_q[4] 
2 1 -166.918 -478.219 -497.159 0.233464 0.626897 0.455607 0.587296 
4 1 488.388 -159.034 -493.526 0.323594 0.85869 0.173604 0.357492 
8 1 -166.197 170.575 -482.243 0.656799 0.507156 -0.0043247 0.558023 
9 1 168.277 168.79 -488.113 0.172218 0.88585 0.213335 0.374298 
1 1 -482.434 491.485 -488.37 0.341372 0.688389 0.44482 0.460131 
3 1 152.751 497.526 -482.159 0.675692 0.610686 0.0122081 0.412739 
13 1 488.589 -171.856 -176.93 0.159625 0.723843 0.153414 0.653479 
18 1 184.033 160.565 -171.171 0.367828 0.511202 0.363587 0.686425 
17 1 -168.116 174.145 -173.859 0.654692 0.066997 0.467593 0.590124 
11 1 -175.817 489.278 -175.393 0.214876 0.514518 0.463924 0.688385 
12 1 167.138 -499.417 -157.023 0.495446 0.607163 0.250795 0.568321 
14 1 -175.448 -146.316 -147.409 0.434218 -0.0880345 0.667618 0.598324 
15 1 152.38 -158.35 -162.911 0.869523 0.128117 0.42739 0.211787 
16 1 -489.51 173.81 -163.579 0.0156271 0.521025 0.486173 0.701373 
10 1 -487.696 495.811 -163.413 0.10524 0.476656 0.21842 0.844995 
19 1 -493.075 494.481 177.834 0.488237 0.598005 0.169994 0.612467 
20 1 -169.687 480.926 174.95 -0.00442933 0.778869 0.332721 0.531639 
5 1 -162.684 -180.459 472.392 0.156366 0.202817 0.588501 0.766865 
6 1 195.508 -162.072 491.404 0.569053 0.284163 0.0313683 0.771004 
7 1 -490.886 155.864 495.376 0.0371159 0.0789707 0.922149 0.376865 
ITEM: TIMESTEP
150000
ITEM: NUMBER OF ATOMS
20
ITEM: BOX BOUNDS pp pp pp
-5.0000000000000000e+02 5.0000000000000000e+02
-5.0000000000000000e+02 5.0000000000000000e+02
-5.0000000000000000e+02 5.0000000000000000e+02
ITEM: ATOMS id type x y z c_q[1] c_q[2] c_q[3] c_q[4] 
2 1 -161.934 -476.777 -492.994 0.229686 0.636162 0.412725 0.610082 
4 1 489.699 -157.341 -495.723 0.341657 0.858286 0.165364 0.345356 
8 1 -168.422 169.312 -475.867 0.661892 0.510072 0.00576395 0.549265 
9 1 167.24 175.804 -483.948 0.135483 0.873623 0.257878 0.389776 
1 1 -479.178 490.458 -490.571 0.315716 0.728777 0.432023 0.427274 
3 1 152.525 495.711 -480.575 0.675468 0.606926 0.0348018 0.41734 
13 1 492.699 -173.952 -172.072 0.153096 0.713874 0.153326 0.66591 
15 1 151.919 -160.726 -169.465 0.868442 0.139898 0.428164 0.207155 
18 1 190.544 158.862 -167.883 0.349939 0.501473 0.338418 0.71522 
17 1 -170.532 176.913 -174.649 0.641819 0.0951862 0.481267 0.589399 
11 1 -177.75 488.953 -177.512 0.257388 0.507944 0.459641 0.681523 
14 1 -169.612 -143.314 -146.962 0.43547 -0.133931 0.649485 0.608767 
16 1 -487.332 176.224 -162.825 -0.0141048 0.518587 0.472526 0.712452 
10 1 -487.617 493.71 -164.515 0.0923997 0.465034 0.23448 0.848661 
12 1 172.406 498.188 -153.071 0.488189 0.585481 0.235493 0.602849 
19 1 -493.263 493.829 173.356 0.484673 0.593149 0.192263 0.613434 
20 1 -171.612 475.636 169.725 0.0103575 0.77799 0.336594 0.530405 
5 1 -160.694 -181.134 474.347 0.185262 0.168675 0.591955 0.766039 
6 1 195.58 -161.46 491.205 0.554471 0.314806 0.0508405 0.768684 
7 1 -490.571 158.021 493.369 0.00489633 0.0705741 0.921352 0.382239 
ITEM: TIMESTEP
160000
ITEM: NUMBER OF ATOMS
20
ITEM: BOX BOUNDS pp pp pp
-5.0000000000000000e+02 5.0000000000000000e+02
-5.0000000000000000e+02 5.0000000000000000e+02
-5.0000000000000000e+02 5.0000000000000000e+02
ITEM: ATOMS id type x y z c_q[1] c_q[2] c_q[3] c_q[4] 
2 1 -156.745 -476.224 -494.274 0.210097 0.661651 0.401367 0.59748 
3 1 147.605 -497.876 -480.937 0.637574 0.62599 0.0578063 0.445302 
4 1 492.909 -157.09 -499.412 0.336078 0.843912 0.186259 0.374396 
8 1 -169.699 176.253 -478.185 0.690484 0.52902 -0.0396728 0.491727 
9 1 164.349 172.766 -481.668 0.127192 0.86867 0.253119 0.406405 
1 1 -480.921 492.225 -494.569 0.337397 0.7174 0.417674 0.443903 
13 1 490.081 -169.985 -175.025 0.162497 0.746963 0.173946 0.620793 
15 1 146.543 -163.498 -172.638 0.866707 0.15104 0.415688 0.23067 
18 1 192.084 162.476 -168.808 0.350231 0.485087 0.38392 0.703303 
17 1 -165.976 171.504 -166.925 0.665771 0.11347 0.419998 0.606198 
11 1 -178.878 490.933 -179.324 0.277289 0.468865 0.449739 0.707821 
14 1 -165.068 -144.503 -151.058 0.46701 -0.0759516 0.619711 0.626172 
16 1 -490.363 174.961 -164.302 0.01318 0.565512 0.434281 0.701015 
10 1 -489.511 495.105 -161.024 0.126346 0.484291 0.249757 0.828928 
12 1 174.4 498.344 -156.391 0.449819 0.579932 0.289175 0.614589 
19 1 -490.725 -499.819 176.051 0.521507 0.584825 0.194795 0.58997 
20 1 -169.269 473.969 170.655 0.0274011 0.777189 0.387425 0.495105 
5 1 -159.554 -180.836 479.546 0.196684 0.177499 0.598999 0.755652 
6 1 195.612 -164.437 486.926 0.572704 0.32208 0.0586597 0.751554 
7 1 -487.663 161.593 494.302 -0.0280549 0.118222 0.925696 0.358223 
ITEM: TIMESTEP
170000
ITEM: NUMBER OF ATOMS
20
ITEM: BOX BOUNDS pp pp pp
-5.0000000000000000e+02 5.0000000000000000e+02
-5.0000000000000000e+02 5.0000000000000000e+02
-5.0000000000000000e+02 5.0000000000000000e+02
ITEM: ATOMS id type x y z c_q[1] c_q[2] c_q[3] c_q[4] 
2 1 -156.171 -474.49 -496.799 0.19806 0.670455 0.368307 0.612872 
3 1 147.4 -498.467 -481.882 0.646289 0.628458 0.0706163 0.427042 
8 1 -178.317 174.819 -474.815 0.695266 0.544116 -0.0167338 0.469321 
9 1 159.98 173.989 -480.652 0.173027 0.891895 0.203887 0.364711 
1 1 -483.274 491.694 -492.772 0.331739 0.731234 0.376665 0.46192 
13 1 490.639 -171.007 -177.636 0.132102 0.749405 0.155331 0.629932 
15 1 151.715 -165.223 -171.125 0.86684 0.16054 0.406243 0.240377 
11 1 -180.623 493.136 -180.245 0.29892 0.454517 0.465528 0.698101 
12 1 177.551 -499.826 -153.784 0.434489 0.588545 0.284865 0.619424 
14 1 -166.809 -143.456 -150.146 0.494511 -0.102104 0.591108 0.628987 
18 1 188.867 161.131 -165.21 0.341695 0.505267 0.385668 0.69225 
16 1 -490.481 178.52 -164.936 0.0363187 0.543031 0.433809 0.718059 
17 1 -165.99 171.592 -164.786 0.649934 0.117335 0.424429 0.619418 
10 1 -488.831 496.909 -161.499 0.161908 0.449802 0.201285 0.854955 
19 1 -494.536 -499.654 179.891 0.554337 0.576849 0.200197 0.565577 
20 1 -169.152 476.987 178.407 -0.00313916 0.777968 0.383291 0.497839 
5 1 -158.226 -179.977 487.024 0.17538 0.203155 0.604828 0.749768 
6 1 192.258 -169.945 484.636 0.566037 0.316049 0.0655719 0.758562 
4 1 491.318 -153.891 497.188 0.321607 0.854859 0.216786 0.344657 
7 1 -484.296 161.042 494.014 -0.0717303 0.137625 0.928232 0.338083 
ITEM: TIMESTEP
180000
ITEM: NUMBER OF ATOMS
20
ITEM: BOX BOUNDS pp pp pp
-5.0000000000000000e+02 5.0000000000000000e+02
-5.0000000000000000e+02 5.0000000000000000e+02
-5.0000000000000000e+02 5.0000000000000000e+02
ITEM: ATOMS id type x y z c_q[1] c_q[2] c_q[3] c_q[4] 
8 1 -173.966 174.377 -475.738 0.702587 0.550879 -0.0380861 0.448835 
9 1 152.692 168.395 -482.319 0.149206 0.897741 0.190909 0.367902 
1 1 -478.105 498.76 -494.288 0.257769 0.744852 0.416913 0.452697 
3 1 150.204 496.416 -480.573 0.656969 0.634584 0.0916662 0.396601 
15 1 150.128 -165.627 -172.976 0.869483 0.216783 0.367937 0.248246 
13 1 492.94 -168.383 -179.022 0.139601 0.722362 0.190009 0.650078 
16 1 -487.674 178.177 -170.976 0.0296541 0.531205 0.461293 0.710035 
17 1 -168.394 173.674 -170.265 0.658593 0.0988248 0.41754 0.618182 
18 1 186.026 167.798 -169.319 0.276481 0.503386 0.382843 0.723596 
11 1 -179.83 495.677 -177.791 0.260605 0.469232 0.460388 0.707071 
12 1 171.978 -498.468 -156.586 0.451908 0.577632 0.256277 0.629637 
14 1 -167.569 -143.542 -149.255 0.513277 -0.0966095 0.588012 0.617621 