ITEM: TIMESTEP
0
ITEM: NUMBER OF ATOMS
10
ITEM: BOX BOUNDS
-500.000000 500.000000
-500.000000 500.000000
-500.000000 500.000000
ITEM: ATOMS id type x y z c_q[1] c_q[2] c_q[3] c_q[4]
1 1 -500.000000 -500.000000 -500.000000 0.899787 0.071155 0.394318 0.172725
2 1 -166.666667 -500.000000 -500.000000 0.107724 0.933233 0.168833 0.298275
3 1 166.666667 -500.000000 -500.000000 0.442948 0.580402 0.667830 0.144682
4 1 -500.000000 -166.666667 -500.000000 0.299232 0.688540 0.149299 0.643493
5 1 -166.666667 -166.666667 -500.000000 0.418235 0.001851 0.586941 0.693236
6 1 166.666667 -166.666667 -500.000000 0.078454 0.238202 0.588289 0.768778
7 1 -500.000000 166.666667 -500.000000 0.357886 0.684192 0.595753 0.221082
8 1 -166.666667 166.666667 -500.000000 0.654036 0.414746 0.137235 0.617567
9 1 166.666667 166.666667 -500.000000 0.502232 0.765209 0.348816 0.201361
10 1 -500.000000 -500.000000 -166.666667 0.342764 0.842281 0.347327 0.228997
