LAMMPS data file

10 atoms
10 ellipsoids
0 bonds
0 angles
0 dihedrals

1 atom types
0 bond types
0 angle types
0 dihedral types

-500.000000 500.000000 xlo xhi
-500.000000 500.000000 ylo yhi
-500.000000 500.000000 zlo zhi

Masses

1 203166.000000

Atoms

1 1 -500.000000 -500.000000 -500.000000 1 1.000000 3 0.000000
2 1 -166.666667 -500.000000 -500.000000 1 1.000000 4 0.000000
3 1 166.666667 -500.000000 -500.000000 1 1.000000 5 0.000000
4 1 -500.000000 -166.666667 -500.000000 1 1.000000 6 0.000000
5 1 -166.666667 -166.666667 -500.000000 1 1.000000 7 0.000000
6 1 166.666667 -166.666667 -500.000000 1 1.000000 8 0.000000
7 1 -500.000000 166.666667 -500.000000 1 1.000000 9 0.000000
8 1 -166.666667 166.666667 -500.000000 1 1.000000 10 0.000000
9 1 166.666667 166.666667 -500.000000 1 1.000000 11 0.000000
10 1 -500.000000 -500.000000 -166.666667 1 1.000000 12 0.000000

Ellipsoids

1 55.000000 110.000000 110.000000 0.899787 0.071155 0.394318 0.172725
2 55.000000 110.000000 110.000000 0.107724 0.933233 0.168833 0.298275
3 55.000000 110.000000 110.000000 0.442948 0.580402 0.667830 0.144682
4 55.000000 110.000000 110.000000 0.299232 0.688540 0.149299 0.643493
5 55.000000 110.000000 110.000000 0.418235 0.001851 0.586941 0.693236
6 55.000000 110.000000 110.000000 0.078454 0.238202 0.588289 0.768778
7 55.000000 110.000000 110.000000 0.357886 0.684192 0.595753 0.221082
8 55.000000 110.000000 110.000000 0.654036 0.414746 0.137235 0.617567
9 55.000000 110.000000 110.000000 0.502232 0.765209 0.348816 0.201361
10 55.000000 110.000000 110.000000 0.342764 0.842281 0.347327 0.228997




