ITEM: TIMESTEP
0
ITEM: NUMBER OF ATOMS
10
ITEM: BOX BOUNDS pp pp pp
-5.0000000000000000e+02 5.0000000000000000e+02
-5.0000000000000000e+02 5.0000000000000000e+02
-5.0000000000000000e+02 5.0000000000000000e+02
ITEM: ATOMS id type x y z c_q[1] c_q[2] c_q[3] c_q[4] 
1 1 -500 -500 -500 0.899787 0.071155 0.394318 0.172725 
2 1 -166.667 -500 -500 0.107724 0.933233 0.168833 0.298275 
3 1 166.667 -500 -500 0.442948 0.580402 0.66783 0.144682 
4 1 -500 -166.667 -500 0.299232 0.68854 0.149299 0.643493 
5 1 -166.667 -166.667 -500 0.418235 0.001851 0.586941 0.693236 
6 1 166.667 -166.667 -500 0.078454 0.238202 0.588289 0.768778 
7 1 -500 166.667 -500 0.357886 0.684192 0.595753 0.221082 
8 1 -166.667 166.667 -500 0.654036 0.414746 0.137235 0.617567 
9 1 166.667 166.667 -500 0.502232 0.765209 0.348816 0.201361 
10 1 -500 -500 -166.667 0.342764 0.842281 0.347327 0.228997 
ITEM: TIMESTEP
10000
ITEM: NUMBER OF ATOMS
10
ITEM: BOX BOUNDS pp pp pp
-5.0000000000000000e+02 5.0000000000000000e+02
-5.0000000000000000e+02 5.0000000000000000e+02
-5.0000000000000000e+02 5.0000000000000000e+02
ITEM: ATOMS id type x y z c_q[1] c_q[2] c_q[3] c_q[4] 
2 1 -170.317 -497.72 -496.571 0.0688769 0.927529 0.188368 0.315379 
6 1 172.174 -161.338 -499.194 0.0539459 0.266493 0.580864 0.767247 
7 1 -494.591 162.893 -499.621 0.354597 0.67956 0.590972 0.251416 
8 1 -167.285 164.026 -494.008 0.665912 0.451933 0.174212 0.567422 
10 1 496.193 499.272 -164.312 0.322234 0.839284 0.35828 0.251798 
3 1 166.889 -497.353 496.377 0.458635 0.569118 0.662943 0.162064 
4 1 -491.817 -161.193 494.07 0.308008 0.703453 0.14406 0.624125 
5 1 -160.924 -167.008 499.782 0.433976 -0.0330324 0.559181 0.705614 
9 1 165.411 165.715 497.677 0.48421 0.763609 0.375629 0.203333 
1 1 -496.067 494.642 -500.282 0.897118 0.0558097 0.371263 0.232872 
ITEM: TIMESTEP
20000
ITEM: NUMBER OF ATOMS
10
ITEM: BOX BOUNDS pp pp pp
-5.0000000000000000e+02 5.0000000000000000e+02
-5.0000000000000000e+02 5.0000000000000000e+02
-5.0000000000000000e+02 5.0000000000000000e+02
ITEM: ATOMS id type x y z c_q[1] c_q[2] c_q[3] c_q[4] 
5 1 -164.688 -169.777 499.823 0.43076 -0.00985356 0.530103 0.730301 
8 1 -166.16 159.569 -492.668 0.660453 0.412675 0.189793 0.597896 
2 1 -172.527 499.458 -493.499 0.0700226 0.936384 0.184629 0.290161 
10 1 498.267 -496.658 -158.21 0.348811 0.838096 0.318931 0.272412 
4 1 -492.424 -156.429 491.654 0.315354 0.699343 0.161628 0.620764 
6 1 171.065 -158.7 498.972 0.0495038 0.267148 0.576139 0.770873 
9 1 167.223 161.777 494.589 0.49427 0.776245 0.3547 0.165314 
7 1 -499.406 163.157 498.263 0.373724 0.679821 0.577738 0.253757 
1 1 -495.081 496.624 499.193 0.933038 0.103289 0.29879 0.171745 
3 1 167.936 499.498 494.637 0.47476 0.550174 0.642546 0.242993 
ITEM: TIMESTEP
30000
ITEM: NUMBER OF ATOMS
10
ITEM: BOX BOUNDS pp pp pp
-5.0000000000000000e+02 5.0000000000000000e+02
-5.0000000000000000e+02 5.0000000000000000e+02
-5.0000000000000000e+02 5.0000000000000000e+02
ITEM: ATOMS id type x y z c_q[1] c_q[2] c_q[3] c_q[4] 
2 1 -168.597 -494.93 -491.447 0.0598915 0.937278 0.21218 0.270004 
5 1 -162.824 -169.455 -500.284 0.424237 0.00214899 0.521702 0.740166 
6 1 170.476 -161.143 -497.913 0.053869 0.276719 0.595481 0.752281 
8 1 -160.924 154.755 -493.57 0.670561 0.426043 0.158468 0.58628 
1 1 -492.19 492.647 -497.839 0.90445 0.15283 0.321266 0.235376 
10 1 -498.216 -491.983 -159.799 0.366617 0.818442 0.287744 0.336077 
3 1 167.811 -499.057 491.218 0.471624 0.555737 0.639946 0.243303 
4 1 -486.76 -154.015 491.836 0.290573 0.676793 0.162526 0.656585 
7 1 -497.087 164.021 -499.562 0.386841 0.694788 0.544783 0.26615 
9 1 167.9 162.419 488.644 0.508129 0.782984 0.316361 0.169282 
ITEM: TIMESTEP
40000
ITEM: NUMBER OF ATOMS
10
ITEM: BOX BOUNDS pp pp pp
-5.0000000000000000e+02 5.0000000000000000e+02
-5.0000000000000000e+02 5.0000000000000000e+02
-5.0000000000000000e+02 5.0000000000000000e+02
ITEM: ATOMS id type x y z c_q[1] c_q[2] c_q[3] c_q[4] 
2 1 -175.585 -496.805 -490.519 0.082192 0.945282 0.170632 0.265651 
5 1 -163.151 -171.498 -494.99 0.400641 -0.0356248 0.539508 0.739695 
7 1 -494.174 163.351 -495.822 0.407158 0.666796 0.551954 0.291467 
8 1 -165.239 156.605 -492.884 0.692462 0.412658 0.150293 0.572382 
10 1 498.766 -491.56 -161.701 0.348944 0.816433 0.294021 0.353874 
4 1 -484.848 -148.995 490.768 0.303409 0.684615 0.177961 0.638416 
6 1 170.402 -159.085 499.198 0.0405461 0.235719 0.596906 0.76583 
9 1 165.601 165.482 489.07 0.525833 0.789043 0.294964 0.11793 
1 1 -489.359 489.042 498.976 0.908891 0.131259 0.310698 0.245267 
3 1 173.013 496.019 488.669 0.464217 0.550949 0.63249 0.284454 
ITEM: TIMESTEP
50000
ITEM: NUMBER OF ATOMS
10
ITEM: BOX BOUNDS pp pp pp
-5.0000000000000000e+02 5.0000000000000000e+02
-5.0000000000000000e+02 5.0000000000000000e+02
-5.0000000000000000e+02 5.0000000000000000e+02
ITEM: ATOMS id type x y z c_q[1] c_q[2] c_q[3] c_q[4] 
2 1 -174.84 -496.247 -491.508 0.0551405 0.954756 0.149125 0.251321 
5 1 -158.834 -172.699 -496.144 0.419364 -0.0171691 0.55248 0.720142 
8 1 -164.55 162.014 -498.727 0.68714 0.422289 0.131263 0.576438 
1 1 -488.293 487.115 -498.639 0.917794 0.109333 0.288996 0.249362 
10 1 496.163 -496.098 -166.037 0.339173 0.830853 0.282865 0.338574 
4 1 -484.789 -149.83 498.113 0.265734 0.688257 0.235155 0.632764 
6 1 164.689 -162.572 498.087 0.067494 0.226146 0.599705 0.764628 
7 1 -496.13 165.279 498.925 0.397722 0.697315 0.538923 0.255207 
9 1 159.497 160.618 492.061 0.533771 0.78118 0.310864 0.0906061 
3 1 168.572 499.596 485.791 0.466583 0.559723 0.612979 0.305396 
ITEM: TIMESTEP
60000
ITEM: NUMBER OF ATOMS
10
ITEM: BOX BOUNDS pp pp pp
-5.0000000000000000e+02 5.0000000000000000e+02
-5.0000000000000000e+02 5.0000000000000000e+02
-5.0000000000000000e+02 5.0000000000000000e+02
ITEM: ATOMS id type x y z c_q[1] c_q[2] c_q[3] c_q[4] 
2 1 -171.202 -492.246 -494.963 0.033511 0.948405 0.197708 0.245593 
5 1 -156.491 -169.991 -498.68 0.41663 -0.00886694 0.530967 0.737845 
6 1 169.342 -165.312 -498.402 0.0131984 0.182017 0.578439 0.79505 
1 1 -490.298 491.302 -499.664 0.917995 0.0989809 0.312675 0.222983 
10 1 496.316 -495.724 -168.753 0.307955 0.835253 0.290646 0.350772 
4 1 -483.956 -146.246 494.062 0.266669 0.72973 0.250685 0.577528 
8 1 -167.024 161.266 499.221 0.700712 0.389107 0.100236 0.589534 
9 1 159.334 161.827 487.423 0.55004 0.78274 0.288294 0.0407588 
7 1 498.368 170.071 496.711 0.338776 0.721135 0.569628 0.201791 
3 1 162.515 499.541 487.293 0.472984 0.525382 0.624459 0.33213 
ITEM: TIMESTEP
70000
ITEM: NUMBER OF ATOMS
10
ITEM: BOX BOUNDS pp pp pp
-5.0000000000000000e+02 5.0000000000000000e+02
-5.0000000000000000e+02 5.0000000000000000e+02
-5.0000000000000000e+02 5.0000000000000000e+02
ITEM: ATOMS id type x y z c_q[1] c_q[2] c_q[3] c_q[4] 
2 1 -172.498 -488.105 -492.146 0.0198472 0.964702 0.190824 0.180393 
5 1 -150.31 -163.359 -498.886 0.39873 0.0325068 0.55621 0.728415 
8 1 -167.465 158.244 -496.44 0.724132 0.382524 0.104948 0.564176 
1 1 -487.752 492.766 -494.997 0.919991 0.112113 0.295405 0.231911 
10 1 496.595 -499.819 -168.889 0.337607 0.805983 0.307977 0.376249 
4 1 -488.986 -141.813 496.435 0.29229 0.722717 0.201725 0.59292 
6 1 164.936 -162.499 497.229 0.0502821 0.15412 0.584502 0.795032 
9 1 155.495 162.444 491.203 0.551581 0.791205 0.263965 -0.00870759 
7 1 498.974 170.166 496.313 0.346135 0.711666 0.563136 0.237907 
3 1 160.331 498.834 491.785 0.455477 0.52783 0.615373 0.367765 
ITEM: TIMESTEP
80000
ITEM: NUMBER OF ATOMS
10
ITEM: BOX BOUNDS pp pp pp
-5.0000000000000000e+02 5.0000000000000000e+02
-5.0000000000000000e+02 5.0000000000000000e+02
-5.0000000000000000e+02 5.0000000000000000e+02
ITEM: ATOMS id type x y z c_q[1] c_q[2] c_q[3] c_q[4] 
2 1 -177.228 -487.67 -495.964 0.0501708 0.959302 0.214832 0.176268 
5 1 -148.641 -162.076 -494.273 0.403221 0.00318669 0.572863 0.713604 
6 1 169.957 -161.453 -497.461 -0.0168581 0.0937477 0.590732 0.801226 
8 1 -171.611 164.944 -488.159 0.719355 0.403752 0.103955 0.555613 
1 1 -486.932 489.406 -498.992 0.926082 0.108499 0.213867 0.291309 
10 1 496.587 -497.74 -167.8 0.306014 0.824088 0.288422 0.379536 
4 1 -484.449 -141.31 495.31 0.314968 0.717714 0.19235 0.590494 
9 1 153.675 167.702 493.579 0.583816 0.782546 0.213277 -0.0359795 
7 1 499.103 166.716 497.758 0.322868 0.69414 0.603516 0.22292 
3 1 165.251 496.891 492.985 0.452264 0.511612 0.620919 0.384928 
ITEM: TIMESTEP
90000
ITEM: NUMBER OF ATOMS
10
ITEM: BOX BOUNDS pp pp pp
-5.0000000000000000e+02 5.0000000000000000e+02
-5.0000000000000000e+02 5.0000000000000000e+02
-5.0000000000000000e+02 5.0000000000000000e+02
ITEM: ATOMS id type x y z c_q[1] c_q[2] c_q[3] c_q[4] 
5 1 -151.847 -163.978 -496.805 0.441603 0.0302104 0.561558 0.69909 
8 1 -174.118 168.827 -488.75 0.711017 0.408323 0.103592 0.563024 
10 1 493.622 -497.066 -169.819 0.262649 0.809434 0.370555 0.372184 
2 1 -179.269 -487.12 498.17 0.062726 0.949264 0.2096 0.2259 
3 1 163.71 -494.982 493.664 0.429122 0.522382 0.629768 0.382574 
4 1 -483.348 -136.801 494.366 0.35515 0.726193 0.147491 0.569876 
6 1 168.359 -160.399 498.225 -0.0641874 0.11027 0.602361 0.78796 
9 1 153.035 165.799 496.865 0.571768 0.797577 0.1833 -0.0579075 
7 1 496.924 170.099 498.917 0.363819 0.669672 0.609525 0.2183 
1 1 -488.821 491.878 499.446 0.95097 0.138968 0.184505 0.205676 
ITEM: TIMESTEP
100000
ITEM: NUMBER OF ATOMS
10
ITEM: BOX BOUNDS pp pp pp
-5.0000000000000000e+02 5.0000000000000000e+02
-5.0000000000000000e+02 5.0000000000000000e+02
-5.0000000000000000e+02 5.0000000000000000e+02
ITEM: ATOMS id type x y z c_q[1] c_q[2] c_q[3] c_q[4] 
5 1 -157.692 -165.704 -498.1 0.457287 0.0526289 0.534646 0.708712 
8 1 -173.984 166.875 -489.938 0.717097 0.376462 0.14288 0.568889 
7 1 492.843 171.748 -494.644 0.389048 0.705728 0.566234 0.173115 
10 1 498.028 -498.158 -173.608 0.296206 0.779885 0.37742 0.401989 
2 1 -181.169 -486.929 499.906 0.0131223 0.967345 0.201248 0.15353 
3 1 167.19 -495.594 499.033 0.476824 0.519031 0.594551 0.386983 
4 1 -485.459 -132.266 495.858 0.34017 0.726056 0.185242 0.568166 
6 1 170.783 -157.176 498.258 -0.107338 0.103866 0.589913 0.793532 
9 1 149.416 164.584 490.525 0.556497 0.802325 0.196223 -0.0899045 
1 1 -491.618 498.835 497.95 0.943934 0.0982743 0.187683 0.253193 
ITEM: TIMESTEP
110000
ITEM: NUMBER OF ATOMS
10
ITEM: BOX BOUNDS pp pp pp
-5.0000000000000000e+02 5.0000000000000000e+02
-5.0000000000000000e+02 5.0000000000000000e+02
-5.0000000000000000e+02 5.0000000000000000e+02
ITEM: ATOMS id type x y z c_q[1] c_q[2] c_q[3] c_q[4] 
2 1 -178.59 -481.499 -496.71 -0.0175079 0.955836 0.240788 0.167607 
4 1 -484.095 -127.388 -499.875 0.300212 0.72758 0.165091 0.594344 
6 1 178.834 -159.532 -498.442 -0.110884 0.098853 0.597432 0.788041 
8 1 -173.935 167.272 -496.219 0.678331 0.392769 0.203505 0.586673 
7 1 490.59 170.666 -490.679 0.3825 0.708579 0.557936 0.200791 
10 1 496.721 -497.268 -168.25 0.342184 0.768945 0.378537 0.385154 
1 1 -490.831 -498.388 494.8 0.946157 0.0538313 0.192401 0.254696 
3 1 172.417 -496.324 493.127 0.512192 0.545707 0.549416 0.371492 
5 1 -161.76 -163.856 497.912 0.498421 0.0840765 0.53745 0.675022 
9 1 146.553 160.293 490.465 0.560714 0.793727 0.220057 -0.0846904 
ITEM: TIMESTEP
120000
ITEM: NUMBER OF ATOMS
10
ITEM: BOX BOUNDS pp pp pp
-5.0000000000000000e+02 5.0000000000000000e+02
-5.0000000000000000e+02 5.0000000000000000e+02
-5.0000000000000000e+02 5.0000000000000000e+02
ITEM: ATOMS id type x y z c_q[1] c_q[2] c_q[3] c_q[4] 
5 1 -163.996 -165.851 -498.263 0.482598 0.0988211 0.537888 0.684112 
6 1 181.92 -156.424 -491.45 -0.107193 0.102162 0.634429 0.758665 
8 1 -178.268 169.51 -489.834 0.695722 0.366695 0.205716 0.582397 
7 1 486.303 168.146 -490.468 0.396571 0.660626 0.599031 0.217869 
10 1 496.157 -499.392 -161.565 0.349125 0.787068 0.373883 0.344743 
1 1 -491.782 -499.383 490.05 0.953147 0.0247151 0.120696 0.276284 
2 1 -173.199 -481.13 498.13 -0.045698 0.958554 0.244684 0.138622 
3 1 163.477 -499.769 485.928 0.531147 0.517569 0.569788 0.354043 
4 1 -484.682 -127.47 496.005 0.301507 0.685207 0.196674 0.63317 
9 1 147.245 155.139 489.785 0.553538 0.786531 0.259266 -0.0880077 
ITEM: TIMESTEP
130000
ITEM: NUMBER OF ATOMS
10
ITEM: BOX BOUNDS pp pp pp
-5.0000000000000000e+02 5.0000000000000000e+02
-5.0000000000000000e+02 5.0000000000000000e+02
-5.0000000000000000e+02 5.0000000000000000e+02
ITEM: ATOMS id type x y z c_q[1] c_q[2] c_q[3] c_q[4] 
5 1 -162.529 -165.378 -497.069 0.499556 0.101799 0.568657 0.645531 
6 1 183.328 -157.12 -497.135 -0.106727 0.134508 0.646351 0.74347 
7 1 482.789 161.964 -494.585 0.384005 0.624583 0.639416 0.231481 
8 1 -177.528 175.63 -489.543 0.699697 0.341818 0.228709 0.584189 
10 1 499.724 -498.149 -159.956 0.370301 0.799141 0.339244 0.3304 
2 1 -171.246 -479.763 496.943 -0.08319 0.964438 0.218779 0.122779 
3 1 162.168 -497.613 483.483 0.537299 0.542989 0.530147 0.36799 
4 1 -487.138 -126.211 496.836 0.288664 0.704727 0.227605 0.606819 
9 1 146.231 158.513 481.828 0.516026 0.790612 0.317812 -0.0874385 
1 1 -492.368 494.013 489.546 0.961478 0.0643315 0.0900931 0.251603 
ITEM: TIMESTEP
140000
ITEM: NUMBER OF ATOMS
10
ITEM: BOX BOUNDS pp pp pp
-5.0000000000000000e+02 5.0000000000000000e+02
-5.0000000000000000e+02 5.0000000000000000e+02
-5.0000000000000000e+02 5.0000000000000000e+02
ITEM: ATOMS id type x y z c_q[1] c_q[2] c_q[3] c_q[4] 
5 1 -161.45 -168.16 -494.125 0.510927 0.107265 0.583865 0.621731 
6 1 184.192 -163.75 -499.905 -0.0567863 0.124833 0.681907 0.718467 
7 1 487.827 160.168 -492.159 0.404442 0.591953 0.645762 0.262698 
8 1 -180.424 179.537 -491.552 0.754924 0.31269 0.190987 0.54391 
10 1 -499.23 497.676 -157.719 0.302501 0.850156 0.335979 0.269901 
2 1 -172.659 -480.04 494.619 -0.0742673 0.969999 0.206493 0.104624 
3 1 158.5 -494.213 483.414 0.536033 0.561631 0.560274 0.288673 
4 1 -491.793 -127.392 498.386 0.286504 0.71225 0.236468 0.595566 
9 1 148.272 160.603 483.349 0.548452 0.761804 0.338781 -0.0638909 
1 1 -494.285 488.252 490.833 0.957134 0.0309182 0.0916044 0.273035 
ITEM: TIMESTEP
150000
ITEM: NUMBER OF ATOMS
10
ITEM: BOX BOUNDS pp pp pp
-5.0000000000000000e+02 5.0000000000000000e+02
-5.0000000000000000e+02 5.0000000000000000e+02
-5.0000000000000000e+02 5.0000000000000000e+02
ITEM: ATOMS id type x y z c_q[1] c_q[2] c_q[3] c_q[4] 
5 1 -158.675 -169.064 -496.1 0.524795 0.11985 0.601887 0.58988 
7 1 486.942 161.889 -496.518 0.430709 0.563898 0.632773 0.310013 
8 1 -178.319 179.509 -491.853 0.772774 0.346742 0.159206 0.507192 
10 1 -491.708 493.755 -158.145 0.30206 0.88031 0.287533 0.22614 
2 1 -172.012 -478.514 495.718 -0.0575384 0.951425 0.260711 0.153327 
3 1 161.351 -493.485 482.238 0.512636 0.566952 0.592394 0.254636 
6 1 186.61 -167.868 498.173 -0.0214133 0.0880502 0.688739 0.719324 
4 1 -491.26 -127.33 491.459 0.256533 0.731219 0.208699 0.596619 
9 1 151.488 159.387 484.342 0.548385 0.750331 0.367669 -0.0331247 
1 1 -499.138 485.691 488.195 0.957633 0.020387 0.060481 0.28083 
ITEM: TIMESTEP
160000
ITEM: NUMBER OF ATOMS
10
ITEM: BOX BOUNDS pp pp pp
-5.0000000000000000e+02 5.0000000000000000e+02
-5.0000000000000000e+02 5.0000000000000000e+02
-5.0000000000000000e+02 5.0000000000000000e+02
ITEM: ATOMS id type x y z c_q[1] c_q[2] c_q[3] c_q[4] 
5 1 -156.336 -168.102 -494.279 0.516531 0.151019 0.611589 0.579955 
7 1 484.793 157.793 -491.333 0.418407 0.54547 0.645933 0.331918 
8 1 -175.942 180.253 -496.129 0.765635 0.310615 0.141847 0.545162 
10 1 -489.806 492.006 -156.256 0.341011 0.886606 0.247848 0.190297 
2 1 -173.392 -479.705 495.079 -0.0526199 0.942411 0.278365 0.177781 
3 1 157.291 -491.015 486.746 0.474496 0.562692 0.616157 0.280323 
4 1 -494.085 -121.874 493.388 0.283354 0.72798 0.224341 0.582604 
6 1 186.02 -162.636 492.786 -0.0296166 0.0565075 0.710257 0.701046 
9 1 155.028 152.871 485.135 0.546266 0.764528 0.341768 -0.0168913 
1 1 -491.917 484.416 486.923 0.970171 0.0127431 0.0607587 0.234337 
ITEM: TIMESTEP
170000
ITEM: NUMBER OF ATOMS
10
ITEM: BOX BOUNDS pp pp pp
-5.0000000000000000e+02 5.0000000000000000e+02
-5.0000000000000000e+02 5.0000000000000000e+02
-5.0000000000000000e+02 5.0000000000000000e+02
ITEM: ATOMS id type x y z c_q[1] c_q[2] c_q[3] c_q[4] 
5 1 -152.46 -167.066 -494.025 0.540637 0.14209 0.618453 0.552302 
7 1 491.821 157.486 -488.557 0.382369 0.579186 0.632013 0.344814 
8 1 -174.982 179.873 -495.777 0.785644 0.31725 0.109699 0.519694 
10 1 -489.556 494.739 -153.769 0.32134 0.901925 0.226515 0.178782 
2 1 -175.231 -475.13 490.413 -0.0523621 0.936716 0.307013 0.159889 
3 1 163.886 -492.26 485.407 0.439507 0.570798 0.636144 0.276305 
4 1 -490.268 -122.559 497.131 0.29142 0.74816 0.20986 0.557934 
6 1 186.214 -163.555 496.907 -0.0281148 0.0526867 0.716791 0.694726 
9 1 153.59 153.36 488.091 0.551467 0.753959 0.356195 -0.0235462 
1 1 -489.098 487.912 488.16 0.97249 -0.0245877 0.0544104 0.225162 
ITEM: TIMESTEP
180000
ITEM: NUMBER OF ATOMS
10
ITEM: BOX BOUNDS pp pp pp
-5.0000000000000000e+02 5.0000000000000000e+02
-5.0000000000000000e+02 5.0000000000000000e+02
-5.0000000000000000e+02 5.0000000000000000e+02
ITEM: ATOMS id type x y z c_q[1] c_q[2] c_q[3] c_q[4] 
5 1 -149.89 -172.803 -493.338 0.556199 0.112141 0.614516 0.548121 
7 1 488.356 155.14 -486.35 0.36397 0.551408 0.65757 0.362045 
8 1 -173.932 178.951 -496.786 0.748146 0.322839 0.0950559 0.571854 
10 1 -482.524 490.924 -151.505 0.301196 0.915524 0.22038 0.150099 
2 1 -172.207 -473.997 490.169 -0.0335871 0.935531 0.308748 0.168309 
3 1 164.071 -496.418 478.781 0.406711 0.589057 0.643626 0.270819 
4 1 -495.131 -121.955 492.203 0.306545 0.778726 0.156317 0.524576 
6 1 184.274 -158.567 492.17 -0.0440003 0.0278575 0.723693 0.688155 
9 1 149.41 157.881 487.729 0.549041 0.777121 0.30763 -0.000844802 
1 1 -493.439 486.769 486.966 0.966675 -0.0254894 0.0846015 0.240277 
ITEM: TIMESTEP
190000
ITEM: NUMBER OF ATOMS
10
ITEM: BOX BOUNDS pp pp pp
-5.0000000000000000e+02 5.0000000000000000e+02
-5.0000000000000000e+02 5.0000000000000000e+02
-5.0000000000000000e+02 5.0000000000000000e+02
ITEM: ATOMS id type x y z c_q[1] c_q[2] c_q[3] c_q[4] 
5 1 -146.923 -166.023 -492.621 0.55585 0.119055 0.601642 0.561145 
7 1 488.682 153.477 -482.06 0.384872 0.531232 0.670793 0.345982 
8 1 -173.173 176.024 -499.664 0.765394 0.322928 0.095056 0.548502 
10 1 -482.488 491.027 -152.747 0.319515 0.907994 0.188294 0.194945 
2 1 -167.086 -472.703 491.083 -0.0898219 0.938865 0.28624 0.168915 
3 1 162.276 -492.189 481.538 0.375338 0.54677 0.691342 0.286725 
4 1 -491.958 -124.354 488.134 0.323714 0.787392 0.162903 0.498684 
6 1 184.663 -162.406 496.712 -0.048231 0.0433384 0.717227 0.693817 
9 1 149.254 155.728 489.359 0.518298 0.801055 0.298667 0.0218118 
1 1 -495.164 483.904 490.216 0.956916 -0.0300087 0.110981 0.266635 
ITEM: TIMESTEP
200000
ITEM: NUMBER OF ATOMS
10
ITEM: BOX BOUNDS pp pp pp
-5.0000000000000000e+02 5.0000000000000000e+02
-5.0000000000000000e+02 5.0000000000000000e+02
-5.0000000000000000e+02 5.0000000000000000e+02
ITEM: ATOMS id type x y z c_q[1] c_q[2] c_q[3] c_q[4] 
5 1 -142.298 -154.964 -496.862 0.534 0.168243 0.603592 0.567639 
7 1 490.69 148.326 -479.235 0.405674 0.535046 0.648362 0.35886 
10 1 -482.691 491.9 -151.193 0.377833 0.883112 0.188521 0.204486 
2 1 -166.21 -473.903 490.858 -0.0854794 0.933595 0.311136 0.155845 
3 1 164.369 -490.632 481.834 0.37935 0.546721 0.687785 0.290071 
4 1 -495.694 -125.642 491.768 0.338242 0.781173 0.184512 0.49124 
6 1 182.02 -160.53 490.224 -0.020723 0.032506 0.699202 0.713884 
9 1 148.361 157.717 491.491 0.545499 0.77009 0.32384 0.0672301 
8 1 -169.948 174.143 497.386 0.753299 0.37927 0.0819891 0.531011 
1 1 -497.623 485.63 493.242 0.95546 -0.0727299 0.109719 0.264138 
ITEM: TIMESTEP
210000
ITEM: NUMBER OF ATOMS
10
ITEM: BOX BOUNDS pp pp pp
-5.0000000000000000e+02 5.0000000000000000e+02
-5.0000000000000000e+02 5.0000000000000000e+02
-5.0000000000000000e+02 5.0000000000000000e+02
ITEM: ATOMS id type x y z c_q[1] c_q[2] c_q[3] c_q[4] 
5 1 -138.187 -152.297 -500.161 0.573681 0.151551 0.606506 0.529219 
7 1 492.107 145.7 -478.867 0.407304 0.544863 0.64307 0.351693 
10 1 -485.927 499.439 -152.544 0.398839 0.874888 0.190792 0.19773 
2 1 -164.982 -481.735 491.891 -0.0756434 0.933761 0.312824 0.156557 
3 1 161.96 -488.543 483.234 0.343556 0.537618 0.708908 0.300642 
4 1 -493.669 -127.999 492.499 0.358071 0.725322 0.19865 0.553382 
6 1 183.905 -160.334 482.693 -0.0558734 0.00386265 0.70334 0.708644 
8 1 -169.196 174.48 498.869 0.752105 0.372475 0.0750927 0.538481 
9 1 146.293 166.925 496.468 0.543208 0.784791 0.29813 0.0121075 
1 1 -498.046 487.902 496.84 0.95052 -0.0554664 0.166017 0.25666 
ITEM: TIMESTEP
220000
ITEM: NUMBER OF ATOMS
10
ITEM: BOX BOUNDS pp pp pp
-5.0000000000000000e+02 5.0000000000000000e+02
-5.0000000000000000e+02 5.0000000000000000e+02
-5.0000000000000000e+02 5.0000000000000000e+02
ITEM: ATOMS id type x y z c_q[1] c_q[2] c_q[3] c_q[4] 
5 1 -135.1 -154.675 -497.578 0.56434 0.199543 0.584988 0.547258 
7 1 492.966 144.138 -473.212 0.369035 0.569337 0.656514 0.329634 
10 1 -484.31 499.502 -153.476 0.390619 0.877675 0.190919 0.201627 
2 1 -155.209 -482.328 490.427 -0.0758239 0.934685 0.322089 0.129895 
3 1 163.091 -492.478 482.457 0.331899 0.578819 0.69414 0.270151 
4 1 -492.885 -126.653 491.626 0.37434 0.753304 0.172563 0.51247 
6 1 178.039 -156.844 478.676 -0.0543136 0.0236471 0.730871 0.679941 
8 1 -171.617 175.241 499.484 0.771478 0.326726 0.0638863 0.542209 
9 1 148.433 168.162 494.14 0.50121 0.80044 0.327424 0.0296232 
1 1 499.362 487.757 498.03 0.936526 -0.0397818 0.196967 0.287298 
ITEM: TIMESTEP
230000
ITEM: NUMBER OF ATOMS
10
ITEM: BOX BOUNDS pp pp pp
-5.0000000000000000e+02 5.0000000000000000e+02
-5.0000000000000000e+02 5.0000000000000000e+02
-5.0000000000000000e+02 5.0000000000000000e+02
ITEM: ATOMS id type x y z c_q[1] c_q[2] c_q[3] c_q[4] 
5 1 -133.726 -152.838 499.914 0.576535 0.224225 0.579538 0.530534 
7 1 496.002 146.667 -471.604 0.392585 0.561091 0.633353 0.360441 
8 1 -173.577 180.509 -498.529 0.79156 0.334526 0.0918725 0.503075 
1 1 497.832 487.701 -499.687 0.927406 -0.0418111 0.224668 0.296132 
10 1 -488.709 499.701 -152.215 0.419601 0.868503 0.161853 0.208424 
2 1 -156.254 -489.853 488.745 -0.0720893 0.9275 0.339141 0.139748 
3 1 161.342 -494.206 480.562 0.31026 0.588324 0.700702 0.258128 
4 1 -495.773 -127.846 498.528 0.389178 0.751525 0.149321 0.511325 
6 1 181.47 -152.317 484.753 -0.0761692 0.00416358 0.693012 0.716879 
9 1 147.724 170.225 496.092 0.518979 0.801648 0.294751 0.0338132 
ITEM: TIMESTEP
240000
ITEM: NUMBER OF ATOMS
10
ITEM: BOX BOUNDS pp pp pp
-5.0000000000000000e+02 5.0000000000000000e+02
-5.0000000000000000e+02 5.0000000000000000e+02
-5.0000000000000000e+02 5.0000000000000000e+02
ITEM: ATOMS id type x y z c_q[1] c_q[2] c_q[3] c_q[4] 
5 1 -131.367 -154.237 -499.035 0.556198 0.244137 0.5897 0.532254 
9 1 151.775 161.468 499.883 0.51462 0.797292 0.315237 0.0108037 
7 1 498.653 138.366 -472.268 0.388013 0.55958 0.655873 0.325802 
1 1 496.739 489.6 -495.86 0.928055 -0.0506818 0.22024 0.29604 
10 1 -486.969 495.251 -155.109 0.413408 0.863668 0.146664 0.248318 
2 1 -160.717 -487.074 490.349 -0.064697 0.934628 0.308345 0.164946 
3 1 160.915 -495.459 479.961 0.225742 0.580996 0.745352 0.236507 
4 1 -497.272 -129.901 496.703 0.395832 0.775409 0.184978 0.455896 
6 1 185.949 -150.65 483.361 -0.100762 0.00335377 0.692241 0.714589 
8 1 -177.076 178.822 499.41 0.786371 0.33526 0.0874484 0.511443 
ITEM: TIMESTEP
250000
ITEM: NUMBER OF ATOMS
10
ITEM: BOX BOUNDS pp pp pp
-5.0000000000000000e+02 5.0000000000000000e+02
-5.0000000000000000e+02 5.0000000000000000e+02
-5.0000000000000000e+02 5.0000000000000000e+02
ITEM: ATOMS id type x y z c_q[1] c_q[2] c_q[3] c_q[4] 
5 1 -133.49 -158.102 -499.74 0.581898 0.250332 0.579714 0.512504 
7 1 495.453 140.561 -471.495 0.378002 0.520108 0.662516 0.384285 
8 1 -179.554 182.129 -497.547 0.790518 0.382013 0.0756852 0.472671 
1 1 498.689 485.926 -489.92 0.937437 -0.066612 0.187792 0.285499 
10 1 -485.542 498.698 -154.782 0.40687 0.852645 0.160222 0.285977 
2 1 -154.486 -486.3 492.577 -0.0477059 0.946001 0.294015 0.127915 
3 1 160.466 -498.773 481.115 0.169082 0.649099 0.715015 0.197069 
4 1 -497.057 -131.503 498.152 0.409234 0.783627 0.185022 0.429211 
6 1 184.709 -151.645 483.03 -0.127891 0.0281811 0.702428 0.699603 
9 1 151.826 158.717 498.54 0.515248 0.77566 0.364066 -0.0181046 
ITEM: TIMESTEP
260000
ITEM: NUMBER OF ATOMS
10
ITEM: BOX BOUNDS pp pp pp
-5.0000000000000000e+02 5.0000000000000000e+02
-5.0000000000000000e+02 5.0000000000000000e+02
-5.0000000000000000e+02 5.0000000000000000e+02
ITEM: ATOMS id type x y z c_q[1] c_q[2] c_q[3] c_q[4] 
4 1 -495.039 -133.942 -499.029 0.419379 0.807809 0.142696 0.388849 
5 1 -133.82 -163.008 -498.028 0.566064 0.253073 0.572614 0.536319 
9 1 143.851 161.759 -496.683 0.541612 0.736024 0.405406 -0.0239069 
7 1 492.41 144.536 -478.101 0.390352 0.563106 0.638131 0.351178 
8 1 -176.936 176.731 -498.713 0.76177 0.407905 0.104053 0.492436 
1 1 -499.444 487.291 -489.899 0.949292 -0.0839983 0.13836 0.269527 
10 1 -477.18 495.241 -152.483 0.392367 0.845314 0.188507 0.30977 
2 1 -155.416 -483.013 494.972 -0.0345822 0.937631 0.321293 0.12815 
3 1 160.512 -496.279 480.186 0.190662 0.629147 0.717758 0.229445 
6 1 184.558 -153.403 482.577 -0.0823843 0.0488389 0.721476 0.685785 
ITEM: TIMESTEP
270000
ITEM: NUMBER OF ATOMS
10
ITEM: BOX BOUNDS pp pp pp
-5.0000000000000000e+02 5.0000000000000000e+02
-5.0000000000000000e+02 5.0000000000000000e+02
-5.0000000000000000e+02 5.0000000000000000e+02
ITEM: ATOMS id type x y z c_q[1] c_q[2] c_q[3] c_q[4] 
4 1 -496.088 -133.831 -493.584 0.433692 0.825959 0.121894 0.338888 
5 1 -135.48 -160.315 -494.819 0.524973 0.252527 0.587925 0.561229 
9 1 145.183 156.067 -498.523 0.531308 0.740117 0.400526 -0.0975606 
7 1 490.348 142.852 -476.311 0.336861 0.569406 0.662213 0.351817 
8 1 -176.177 173.897 -496.511 0.75835 0.440407 0.123236 0.4645 
1 1 496.488 492.725 -492.312 0.941824 -0.0834031 0.11065 0.306215 
10 1 -480.455 495.222 -154.06 0.411976 0.852753 0.11754 0.298786 
2 1 -160.637 -485.452 493.162 0.0024987 0.941875 0.318664 0.106385 
3 1 158.264 -496.278 478.404 0.149047 0.598746 0.754579 0.223381 
6 1 184.494 -156.463 484.477 -0.0945352 0.122106 0.71183 0.685165 
ITEM: TIMESTEP
280000
ITEM: NUMBER OF ATOMS
10
ITEM: BOX BOUNDS pp pp pp
-5.0000000000000000e+02 5.0000000000000000e+02
-5.0000000000000000e+02 5.0000000000000000e+02
-5.0000000000000000e+02 5.0000000000000000e+02
ITEM: ATOMS id type x y z c_q[1] c_q[2] c_q[3] c_q[4] 
4 1 499.894 -133.813 -489.379 0.47281 0.808628 0.132928 0.323886 
5 1 -142.251 -165.974 -494.271 0.488102 0.262753 0.606553 0.569922 
9 1 150.031 151.527 -498.285 0.540246 0.742255 0.383286 -0.101411 
7 1 491.208 140.66 -477.646 0.375543 0.582797 0.630491 0.348993 
8 1 -180.614 172.887 -499.048 0.782723 0.438252 0.0956799 0.431423 
1 1 497.929 488.376 -487.987 0.959199 -0.0507243 0.121784 0.250066 
10 1 -486.048 492.264 -154.921 0.408782 0.861051 0.128377 0.273876 
2 1 -157.441 -484.237 496.311 0.0239102 0.951055 0.298254 0.077246 
3 1 163.639 -497.811 477.179 0.140626 0.578337 0.775304 0.211315 
6 1 187.171 -156.883 486.72 -0.0863783 0.120773 0.689965 0.70845 
ITEM: TIMESTEP
290000
ITEM: NUMBER OF ATOMS
10
ITEM: BOX BOUNDS pp pp pp
-5.0000000000000000e+02 5.0000000000000000e+02
-5.0000000000000000e+02 5.0000000000000000e+02
-5.0000000000000000e+02 5.0000000000000000e+02
ITEM: ATOMS id type x y z c_q[1] c_q[2] c_q[3] c_q[4] 
5 1 -137.081 -162.166 -496.351 0.515203 0.260646 0.593371 0.56084 
4 1 -498.837 -128.155 -491.355 0.440187 0.813165 0.171782 0.339837 
9 1 151.84 151.173 -499.534 0.57015 0.702114 0.420558 -0.0713866 
7 1 492.792 135.709 -475.002 0.342446 0.607827 0.643226 0.315494 
8 1 -183.009 172.893 -497.59 0.788269 0.450633 0.0443429 0.416647 
1 1 493.233 490.617 -491.254 0.950644 -0.0582211 0.151561 0.264416 
10 1 -486.142 493.299 -157.653 0.377928 0.873714 0.163304 0.259087 
2 1 -155.606 -486.311 488.829 0.0203209 0.954778 0.290157 0.0616105 
3 1 161.047 -490.76 481.17 0.0927549 0.579739 0.777954 0.223801 
6 1 188.229 -159.457 485.478 -0.0584851 0.1093 0.713008 0.69011 
ITEM: TIMESTEP
300000
ITEM: NUMBER OF ATOMS
10
ITEM: BOX BOUNDS pp pp pp
-5.0000000000000000e+02 5.0000000000000000e+02
-5.0000000000000000e+02 5.0000000000000000e+02
-5.0000000000000000e+02 5.0000000000000000e+02
ITEM: ATOMS id type x y z c_q[1] c_q[2] c_q[3] c_q[4] 
5 1 -146.695 -163.825 -497.029 0.515182 0.275333 0.592921 0.554278 
4 1 495.877 -133.399 -485.58 0.470833 0.793603 0.164535 0.348481 
7 1 495.102 138.964 -471.883 0.314528 0.604304 0.638841 0.357451 
8 1 -184.247 174.621 -498.715 0.781301 0.451879 -0.0100568 0.430433 
1 1 493.976 490.862 -497.093 0.956163 -0.0327018 0.168901 0.236972 
10 1 -486.988 496.441 -162.497 0.33115 0.886246 0.186134 0.265069 
2 1 -156.06 -489.177 486.904 0.0438081 0.957881 0.283035 0.020889 
3 1 162.902 -488.609 478.305 0.0647752 0.591874 0.767756 0.236729 
6 1 187.589 -155.506 479.014 -0.00935461 0.108625 0.707992 0.697754 
9 1 152.515 141.197 498.675 0.592755 0.693876 0.395405 -0.104078 
ITEM: TIMESTEP
310000
ITEM: NUMBER OF ATOMS
10
ITEM: BOX BOUNDS pp pp pp
-5.0000000000000000e+02 5.0000000000000000e+02
-5.0000000000000000e+02 5.0000000000000000e+02
-5.0000000000000000e+02 5.0000000000000000e+02
ITEM: ATOMS id type x y z c_q[1] c_q[2] c_q[3] c_q[4] 
4 1 494.689 -130.265 -487.109 0.485043 0.784092 0.179522 0.34308 
7 1 492.375 137.174 -475.241 0.316699 0.568728 0.65469 0.384228 
8 1 -178.855 178.269 -496.256 0.773241 0.453652 -0.00380168 0.443039 
1 1 488.459 490.919 -496.933 0.940757 -0.00154538 0.25074 0.228263 
10 1 -478.14 498.36 -166.451 0.365073 0.876644 0.182905 0.254487 
2 1 -159.97 -488.977 483.342 0.0516545 0.918211 0.391803 0.0266769 
3 1 164.273 -486.96 479.294 0.0360687 0.581867 0.774279 0.246215 
5 1 -143.174 -163.321 496.05 0.514153 0.25748 0.602297 0.553705 
6 1 188.806 -158.534 479.525 -0.00901551 0.133232 0.724106 0.676637 
9 1 151.587 140.009 495.065 0.588976 0.700179 0.393966 -0.0874489 
ITEM: TIMESTEP
320000
ITEM: NUMBER OF ATOMS
10
ITEM: BOX BOUNDS pp pp pp
-5.0000000000000000e+02 5.0000000000000000e+02
-5.0000000000000000e+02 5.0000000000000000e+02