LAMMPS data file

45 atoms
45 ellipsoids
0 bonds
0 angles
0 dihedrals

1 atom types
0 bond types
0 angle types
0 dihedral types

-500.000000 500.000000 xlo xhi
-500.000000 500.000000 ylo yhi
-500.000000 500.000000 zlo zhi

Masses

1 203166.000000

Atoms

1 1 -500.000000 -500.000000 -500.000000 1 1.000000 3 0.000000
2 1 -250.000000 -500.000000 -500.000000 1 1.000000 4 0.000000
3 1 0.000000 -500.000000 -500.000000 1 1.000000 5 0.000000
4 1 250.000000 -500.000000 -500.000000 1 1.000000 6 0.000000
5 1 -500.000000 -250.000000 -500.000000 1 1.000000 7 0.000000
6 1 -250.000000 -250.000000 -500.000000 1 1.000000 8 0.000000
7 1 0.000000 -250.000000 -500.000000 1 1.000000 9 0.000000
8 1 250.000000 -250.000000 -500.000000 1 1.000000 10 0.000000
9 1 -500.000000 0.000000 -500.000000 1 1.000000 11 0.000000
10 1 -250.000000 0.000000 -500.000000 1 1.000000 12 0.000000
11 1 0.000000 0.000000 -500.000000 1 1.000000 13 0.000000
12 1 250.000000 0.000000 -500.000000 1 1.000000 14 0.000000
13 1 -500.000000 250.000000 -500.000000 1 1.000000 15 0.000000
14 1 -250.000000 250.000000 -500.000000 1 1.000000 16 0.000000
15 1 0.000000 250.000000 -500.000000 1 1.000000 17 0.000000
16 1 250.000000 250.000000 -500.000000 1 1.000000 18 0.000000
17 1 -500.000000 -500.000000 -250.000000 1 1.000000 19 0.000000
18 1 -250.000000 -500.000000 -250.000000 1 1.000000 20 0.000000
19 1 0.000000 -500.000000 -250.000000 1 1.000000 21 0.000000
20 1 250.000000 -500.000000 -250.000000 1 1.000000 22 0.000000
21 1 -500.000000 -250.000000 -250.000000 1 1.000000 23 0.000000
22 1 -250.000000 -250.000000 -250.000000 1 1.000000 24 0.000000
23 1 0.000000 -250.000000 -250.000000 1 1.000000 25 0.000000
24 1 250.000000 -250.000000 -250.000000 1 1.000000 26 0.000000
25 1 -500.000000 0.000000 -250.000000 1 1.000000 27 0.000000
26 1 -250.000000 0.000000 -250.000000 1 1.000000 28 0.000000
27 1 0.000000 0.000000 -250.000000 1 1.000000 29 0.000000
28 1 250.000000 0.000000 -250.000000 1 1.000000 30 0.000000
29 1 -500.000000 250.000000 -250.000000 1 1.000000 31 0.000000
30 1 -250.000000 250.000000 -250.000000 1 1.000000 32 0.000000
31 1 0.000000 250.000000 -250.000000 1 1.000000 33 0.000000
32 1 250.000000 250.000000 -250.000000 1 1.000000 34 0.000000
33 1 -500.000000 -500.000000 0.000000 1 1.000000 35 0.000000
34 1 -250.000000 -500.000000 0.000000 1 1.000000 36 0.000000
35 1 0.000000 -500.000000 0.000000 1 1.000000 37 0.000000
36 1 250.000000 -500.000000 0.000000 1 1.000000 38 0.000000
37 1 -500.000000 -250.000000 0.000000 1 1.000000 39 0.000000
38 1 -250.000000 -250.000000 0.000000 1 1.000000 40 0.000000
39 1 0.000000 -250.000000 0.000000 1 1.000000 41 0.000000
40 1 250.000000 -250.000000 0.000000 1 1.000000 42 0.000000
41 1 -500.000000 0.000000 0.000000 1 1.000000 43 0.000000
42 1 -250.000000 0.000000 0.000000 1 1.000000 44 0.000000
43 1 0.000000 0.000000 0.000000 1 1.000000 45 0.000000
44 1 250.000000 0.000000 0.000000 1 1.000000 46 0.000000
45 1 -500.000000 250.000000 0.000000 1 1.000000 47 0.000000

Ellipsoids

1 55.000000 110.000000 110.000000 0.523457 0.567167 0.482675 0.413930
2 55.000000 110.000000 110.000000 0.293690 0.900481 0.316341 0.053000
3 55.000000 110.000000 110.000000 0.048507 0.543602 0.191776 0.815700
4 55.000000 110.000000 110.000000 0.001313 0.373013 0.704675 0.603567
5 55.000000 110.000000 110.000000 0.658030 0.152886 0.609848 0.414376
6 55.000000 110.000000 110.000000 0.636178 0.325195 0.654179 0.248145
7 55.000000 110.000000 110.000000 0.308659 0.358400 0.627641 0.618341
8 55.000000 110.000000 110.000000 0.226875 0.624420 0.626545 0.407515
9 55.000000 110.000000 110.000000 0.139875 0.867362 0.448225 0.164960
10 55.000000 110.000000 110.000000 0.635396 0.379825 0.006544 0.672282
11 55.000000 110.000000 110.000000 0.576273 0.742620 0.055590 0.336653
12 55.000000 110.000000 110.000000 0.453020 0.500975 0.732625 0.084008
13 55.000000 110.000000 110.000000 0.421907 0.526344 0.015895 0.738041
14 55.000000 110.000000 110.000000 0.439696 0.861466 0.065376 0.245497
15 55.000000 110.000000 110.000000 0.901175 0.372376 0.087019 0.204079
16 55.000000 110.000000 110.000000 0.716667 0.551917 0.408935 0.120613
17 55.000000 110.000000 110.000000 0.560469 0.214111 0.200997 0.774359
18 55.000000 110.000000 110.000000 0.293054 0.063624 0.726556 0.618213
19 55.000000 110.000000 110.000000 0.654057 0.446819 0.593511 0.142499
20 55.000000 110.000000 110.000000 0.664112 0.410278 0.624899 0.011352
21 55.000000 110.000000 110.000000 0.177580 0.369914 0.680689 0.606870
22 55.000000 110.000000 110.000000 0.650948 0.668383 0.227198 0.279128
23 55.000000 110.000000 110.000000 0.541421 0.573937 0.407940 0.459396
24 55.000000 110.000000 110.000000 0.703424 0.519503 0.232519 0.425730
25 55.000000 110.000000 110.000000 0.129365 0.706451 0.105161 0.687847
26 55.000000 110.000000 110.000000 0.524699 0.796372 0.194120 0.229785
27 55.000000 110.000000 110.000000 0.315097 0.341626 0.153075 0.872109
28 55.000000 110.000000 110.000000 0.140003 0.144300 0.960685 0.191471
29 55.000000 110.000000 110.000000 0.378210 0.318096 0.700579 0.514744
30 55.000000 110.000000 110.000000 0.093440 0.539094 0.799011 0.249457
31 55.000000 110.000000 110.000000 0.379778 0.797502 0.395898 0.251043
32 55.000000 110.000000 110.000000 0.502306 0.141498 0.849340 0.079303
33 55.000000 110.000000 110.000000 0.764422 0.090299 0.199366 0.606431
34 55.000000 110.000000 110.000000 0.338992 0.846621 0.164343 0.375910
35 55.000000 110.000000 110.000000 0.540587 0.655891 0.093619 0.518467
36 55.000000 110.000000 110.000000 0.042602 0.514173 0.856556 0.011106
37 55.000000 110.000000 110.000000 0.537208 0.562856 0.601066 0.182539
38 55.000000 110.000000 110.000000 0.690215 0.146920 0.562823 0.430404
39 55.000000 110.000000 110.000000 0.373403 0.884050 0.281054 0.005836
40 55.000000 110.000000 110.000000 0.444115 0.443752 0.745148 0.224946
41 55.000000 110.000000 110.000000 0.199258 0.016599 0.627851 0.752213
42 55.000000 110.000000 110.000000 0.142405 0.663581 0.688474 0.255705
43 55.000000 110.000000 110.000000 0.326560 0.385770 0.475376 0.720109
44 55.000000 110.000000 110.000000 0.173848 0.521961 0.570164 0.610121
45 55.000000 110.000000 110.000000 0.449633 0.559677 0.624489 0.307579




