ITEM: TIMESTEP
0
ITEM: NUMBER OF ATOMS
15
ITEM: BOX BOUNDS
-500.000000 500.000000
-500.000000 500.000000
-500.000000 500.000000
ITEM: ATOMS id type x y z c_q[1] c_q[2] c_q[3] c_q[4]
1 1 -500.000000 -500.000000 -500.000000 0.497500 0.328633 0.702117 0.389264
2 1 -166.666667 -500.000000 -500.000000 0.637524 0.087446 0.562728 0.518897
3 1 166.666667 -500.000000 -500.000000 0.407458 0.608093 0.385191 0.561986
4 1 -500.000000 -166.666667 -500.000000 0.363736 0.929011 0.002744 0.068028
5 1 -166.666667 -166.666667 -500.000000 0.000699 0.376189 0.926361 0.018335
6 1 166.666667 -166.666667 -500.000000 0.292034 0.201047 0.105075 0.929116
7 1 -500.000000 166.666667 -500.000000 0.533167 0.683459 0.490763 0.088143
8 1 -166.666667 166.666667 -500.000000 0.020284 0.582732 0.660467 0.473071
9 1 166.666667 166.666667 -500.000000 0.384335 0.401557 0.431819 0.710332
10 1 -500.000000 -500.000000 -166.666667 0.525673 0.558472 0.632739 0.106858
11 1 -166.666667 -500.000000 -166.666667 0.011693 0.331457 0.401907 0.853505
12 1 166.666667 -500.000000 -166.666667 0.249284 0.540736 0.681466 0.425518
13 1 -500.000000 -166.666667 -166.666667 0.338742 0.554342 0.239437 0.721546
14 1 -166.666667 -166.666667 -166.666667 0.259900 0.117102 0.266605 0.920685
15 1 166.666667 -166.666667 -166.666667 0.743766 0.266428 0.387470 0.475074
