ITEM: TIMESTEP
0
ITEM: NUMBER OF ATOMS
10
ITEM: BOX BOUNDS
-500.000000 500.000000
-500.000000 500.000000
-500.000000 500.000000
ITEM: ATOMS id type x y z c_q[1] c_q[2] c_q[3] c_q[4]
1 1 -500.000000 -500.000000 -500.000000 0.641074 0.684787 0.225486 0.263147
2 1 -166.666667 -500.000000 -500.000000 0.621335 0.342548 0.431541 0.557115
3 1 166.666667 -500.000000 -500.000000 0.361149 0.918993 0.152856 0.040730
4 1 -500.000000 -166.666667 -500.000000 0.288558 0.591674 0.497091 0.565293
5 1 -166.666667 -166.666667 -500.000000 0.476454 0.535557 0.149442 0.681056
6 1 166.666667 -166.666667 -500.000000 0.676736 0.325764 0.532492 0.390331
7 1 -500.000000 166.666667 -500.000000 0.319369 0.104968 0.683671 0.647749
8 1 -166.666667 166.666667 -500.000000 0.105767 0.564406 0.628601 0.524519
9 1 166.666667 166.666667 -500.000000 0.189133 0.749841 0.604749 0.190383
10 1 -500.000000 -500.000000 -166.666667 0.289104 0.471491 0.564296 0.612932
