ITEM: TIMESTEP
0
ITEM: NUMBER OF ATOMS
50
ITEM: BOX BOUNDS pp pp pp
-5.0000000000000000e+02 5.0000000000000000e+02
-5.0000000000000000e+02 5.0000000000000000e+02
-5.0000000000000000e+02 5.0000000000000000e+02
ITEM: ATOMS id type x y z c_q[1] c_q[2] c_q[3] c_q[4] 
1 1 -500 -500 -500 0.360644 0.112193 0.799163 0.46764 
2 1 -250 -500 -500 0.784602 0.382579 0.314984 0.372582 
3 1 0 -500 -500 0.935761 0.333362 0.11457 0.009767 
4 1 250 -500 -500 0.082852 0.79196 0.141545 0.588132 
5 1 -500 -250 -500 0.252203 0.575325 0.668982 0.397314 
6 1 -250 -250 -500 0.753005 0.578752 0.208067 0.233963 
7 1 0 -250 -500 0.553173 0.036884 0.637279 0.535271 
8 1 250 -250 -500 0.498226 0.44465 0.679941 0.302882 
9 1 -500 0 -500 0.837928 0.336823 0.425285 0.059653 
10 1 -250 0 -500 0.411813 0.213638 0.627233 0.625577 
11 1 0 0 -500 0.564598 0.063971 0.60428 0.558553 
12 1 250 0 -500 0.541828 0.500745 0.615619 0.276929 
13 1 -500 250 -500 0.065632 0.762874 0.11222 0.633342 
14 1 -250 250 -500 0.575001 0.468098 0.670979 0.006697 
15 1 0 250 -500 0.503977 0.262045 0.432244 0.70036 
16 1 250 250 -500 0.797389 0.045409 0.328985 0.503863 
17 1 -500 -500 -250 0.318232 0.590525 0.591303 0.447627 
18 1 -250 -500 -250 0.3764 0.080658 0.825456 0.412844 
19 1 0 -500 -250 0.587895 0.498352 0.55021 0.321393 
20 1 250 -500 -250 0.03539 0.081059 0.808954 0.58118 
21 1 -500 -250 -250 0.061758 0.84919 0.17714 0.493643 
22 1 -250 -250 -250 0.495671 0.536459 0.238329 0.640095 
23 1 0 -250 -250 0.133703 0.539158 0.571957 0.603571 
24 1 250 -250 -250 0.246444 0.055714 0.914521 0.31593 
25 1 -500 0 -250 0.682424 0.462833 0.089565 0.558624 
26 1 -250 0 -250 0.321072 0.595794 0.676758 0.289724 
27 1 0 0 -250 0.680881 0.270432 0.660335 0.165004 
28 1 250 0 -250 0.370368 0.520877 0.446108 0.6265 
29 1 -500 250 -250 0.077033 0.431105 0.152868 0.885915 
30 1 -250 250 -250 0.201912 0.569352 0.64778 0.464167 
31 1 0 250 -250 0.218924 0.692811 0.685921 0.039962 
32 1 250 250 -250 0.141688 0.146097 0.156732 0.966445 
33 1 -500 -500 0 0.604082 0.711301 0.19997 0.298575 
34 1 -250 -500 0 0.70951 0.301363 0.181704 0.610541 
35 1 0 -500 0 0.189884 0.741182 0.542392 0.346994 
36 1 250 -500 0 0.109023 0.666788 0.675087 0.296253 
37 1 -500 -250 0 0.311557 0.636069 0.613378 0.34945 
38 1 -250 -250 0 0.318148 0.926513 0.050749 0.194369 
39 1 0 -250 0 0.951693 0.013234 0.0968191 0.291088 
40 1 250 -250 0 0.51503 0.029197 0.02242 0.856381 
41 1 -500 0 0 0.298221 0.870382 0.29397 0.259 
42 1 -250 0 0 0.472413 0.528594 0.480887 0.515909 
43 1 0 0 0 0.412966 0.107153 0.679674 0.596675 
44 1 250 0 0 0.482331 0.479912 0.522133 0.514217 
45 1 -500 250 0 0.699758 0.674011 0.212699 0.103961 
46 1 -250 250 0 0.77028 0.61539 0.10083 0.133407 
47 1 0 250 0 0.129282 0.095464 0.984968 0.063324 
48 1 250 250 0 0.419762 0.569701 0.629082 0.321708 
49 1 -500 -500 250 0.606077 0.628805 0.484982 0.045478 
50 1 -250 -500 250 0.519572 0.548876 0.472383 0.453469 
ITEM: TIMESTEP
10000
ITEM: NUMBER OF ATOMS
50
ITEM: BOX BOUNDS pp pp pp
-5.0000000000000000e+02 5.0000000000000000e+02
-5.0000000000000000e+02 5.0000000000000000e+02
-5.0000000000000000e+02 5.0000000000000000e+02
ITEM: ATOMS id type x y z c_q[1] c_q[2] c_q[3] c_q[4] 
5 1 -496.136 -255.18 -498.946 0.275453 0.56427 0.686317 0.367007 
7 1 -0.958263 -250.683 -496.272 0.55132 0.0501483 0.638751 0.534348 
8 1 249.131 -246.055 -498.23 0.524367 0.429916 0.668106 0.306343 
12 1 251.197 4.11626 -496.469 0.508953 0.530243 0.616003 0.283458 
13 1 -499.655 248.805 -496.696 0.0155968 0.751056 0.165158 0.639058 
14 1 -243.547 251.579 -496.249 0.555014 0.479716 0.679178 0.0234581 
16 1 250.896 256.117 -493.393 0.798695 -0.0172239 0.311829 0.514347 
2 1 -247.095 -499.632 -499.843 0.786017 0.422199 0.323188 0.315397 
17 1 -496.915 -498.039 -251.099 0.302676 0.615734 0.619823 0.380892 
18 1 -252.973 499.587 -245.698 0.413331 0.0619108 0.825117 0.38014 
19 1 -7.23305 -497.978 -250.991 0.543421 0.510527 0.570891 0.343714 
20 1 248.504 -497.776 -250.097 0.0491237 0.0754676 0.783641 0.614652 
22 1 -248.471 -249.829 -247.778 0.498418 0.484428 0.255877 0.67189 
23 1 1.69764 -249.38 -246.522 0.159416 0.587277 0.561447 0.560776 
24 1 252.498 -252.531 -257.324 0.227951 0.0528548 0.939274 0.251017 
21 1 -499.968 -247.316 -251.189 0.0231839 0.841007 0.206624 0.499477 
25 1 -496.645 1.08195 -248.801 0.664436 0.476846 0.0963345 0.56733 
26 1 -249.197 -1.17409 -246.159 0.296571 0.615235 0.656714 0.319779 
27 1 -1.19473 -0.589718 -251.965 0.681349 0.263604 0.649692 0.210183 
28 1 250.298 4.1451 -247.116 0.419863 0.556332 0.407365 0.590139 
29 1 -499.016 244.302 -247.369 0.0654954 0.439555 0.127458 0.886711 
30 1 -247.67 251.313 -251.452 0.185653 0.55694 0.653366 0.47798 
31 1 -0.439116 254.522 -247.979 0.185315 0.704991 0.68348 0.0387577 
32 1 243.961 252.486 -249.148 0.130843 0.091694 0.116362 0.980271 
33 1 -499.52 -496.965 -2.42769 0.635675 0.681903 0.231057 0.278455 
35 1 1.91483 499.489 -4.61665 0.168404 0.725311 0.51779 0.421258 
36 1 247.608 -498.15 -7.04312 0.1877 0.662339 0.65675 0.307824 
38 1 -246.158 -248.643 -0.43668 0.325791 0.924982 0.0589568 0.186529 
40 1 251.452 -248.48 -2.86753 0.471123 0.0638734 0.0329994 0.879133 
48 1 256.311 248.739 -1.92614 0.406222 0.570016 0.650886 0.293961 
39 1 1.55291 -247.519 4.60643 0.935966 0.0272413 0.09731 0.337277 
37 1 498.476 -248.796 3.30064 0.309096 0.648443 0.57657 0.389291 
42 1 -250.743 -3.47851 1.13075 0.491306 0.538382 0.487239 0.481 
43 1 5.46106 -4.15556 2.53156 0.404868 0.104595 0.693773 0.586362 
44 1 244.784 -2.20729 3.06536 0.502461 0.506445 0.502595 0.488308 
41 1 496.253 -3.08867 2.27804 0.279132 0.854892 0.36264 0.244412 
45 1 -497.168 251.397 0.250858 0.712914 0.669151 0.16646 0.127601 
46 1 -249.12 249.852 3.81036 0.749094 0.632836 0.164839 0.105852 
47 1 3.22514 248.532 2.78381 0.101483 0.11134 0.986437 0.0651592 
34 1 -243.386 497.332 0.223227 0.719499 0.30435 0.189782 0.594706 
49 1 -499.139 -496.765 253.078 0.628559 0.604087 0.487078 0.05241 
50 1 -246.843 -493.603 252.331 0.49899 0.569626 0.467115 0.456441 
1 1 491.185 -500.16 498.951 0.368044 0.140565 0.782323 0.482448 
6 1 -253.965 -251.941 499.294 0.776371 0.550922 0.198443 0.233138 
10 1 -254.191 -1.36272 498.596 0.420834 0.231926 0.635975 0.603858 
9 1 496.373 -0.463156 -498.988 0.821437 0.337719 0.455086 0.063897 
11 1 1.83703 0.416833 497.644 0.559519 0.0536018 0.612941 0.555309 
15 1 6.82911 250.385 498.11 0.480031 0.201065 0.459686 0.719606 
3 1 -6.15101 499.961 498.357 0.929349 0.358694 0.0833223 0.0265989 
4 1 247.866 -499.898 498.092 0.0543995 0.792142 0.122532 0.595431 
ITEM: TIMESTEP
20000
ITEM: NUMBER OF ATOMS
50
ITEM: BOX BOUNDS pp pp pp
-5.0000000000000000e+02 5.0000000000000000e+02
-5.0000000000000000e+02 5.0000000000000000e+02
-5.0000000000000000e+02 5.0000000000000000e+02
ITEM: ATOMS id type x y z c_q[1] c_q[2] c_q[3] c_q[4] 
3 1 -3.63729 -493.98 -497.526 0.917949 0.380243 0.113058 0.00145713 
7 1 1.09732 -254.456 -499.908 0.576905 0.071184 0.61192 0.536346 
8 1 251.87 -248.204 -495.56 0.508554 0.474111 0.663776 0.275669 
5 1 499.401 -245.516 -497.882 0.218052 0.607496 0.67581 0.355924 
9 1 489.701 -0.280848 -497.122 0.819616 0.327242 0.468003 0.0459919 
10 1 -252.092 2.00808 -496.914 0.406832 0.246842 0.621064 0.622765 
13 1 -498.419 247.815 -495.259 0.0172015 0.749447 0.136606 0.647589 
14 1 -246.607 252.61 -496.554 0.556664 0.442197 0.701705 0.046869 
16 1 253.31 251.584 -494.845 0.822607 -0.0573741 0.299342 0.48002 
17 1 -491.731 -494.585 -251.76 0.321497 0.6163 0.593684 0.405405 
19 1 -6.81295 -495.489 -253.687 0.520873 0.487867 0.587918 0.380827 
21 1 -495.955 -250.628 -255.235 0.0430287 0.861246 0.131204 0.48907 
22 1 -250.784 -247.658 -246.053 0.508613 0.465837 0.258284 0.676461 
23 1 2.65501 -253.047 -245.9 0.148677 0.575199 0.576926 0.560534 
24 1 248.32 -250.068 -255.383 0.246117 0.0500542 0.9334 0.256292 
25 1 -495.792 0.205251 -248.677 0.670536 0.432575 0.0936274 0.595395 
27 1 -0.0237705 -1.67762 -257.219 0.691243 0.276265 0.629328 0.223176 
26 1 -247.1 1.60257 -250.329 0.324188 0.629746 0.641669 0.29425 
28 1 253.885 10.8192 -247.961 0.465676 0.539906 0.387723 0.584225 
30 1 -246.763 256.778 -250.997 0.189879 0.580856 0.636869 0.470054 
31 1 0.509948 255.888 -249.304 0.212173 0.713536 0.667002 0.0309408 
32 1 246.225 256.202 -247.855 0.158626 0.110902 0.176261 0.965127 
29 1 497.193 243.48 -246.395 0.0593983 0.471431 0.0752035 0.87668 
18 1 -249.003 497.552 -248.593 0.44434 0.0955493 0.808919 0.372937 
20 1 243.014 -499.801 -246.888 0.0580375 0.0347133 0.786398 0.614007 
33 1 -496.513 -496.305 -1.70403 0.615366 0.704849 0.196534 0.293064 
35 1 3.90804 -497.44 -5.91636 0.163932 0.748332 0.523076 0.37352 
36 1 251.404 -498.127 -6.94402 0.216272 0.686732 0.648179 0.247971 
38 1 -243.494 -247.185 -2.80559 0.35386 0.911708 0.124261 0.167721 
40 1 249.982 -253.238 -1.12883 0.444934 0.0646363 0.0511457 0.891762 
41 1 495.518 -0.92174 -0.708754 0.226711 0.858583 0.394002 0.237066 
48 1 254.024 247.217 -2.24413 0.394465 0.577016 0.648078 0.302398 
39 1 0.688561 -257.187 2.44563 0.920525 0.0200934 0.145068 0.362196 
37 1 497.003 -246.998 3.4593 0.300341 0.638794 0.576568 0.41147 
42 1 -251.287 -2.35508 6.78071 0.456571 0.504979 0.545169 0.489213 
43 1 6.97203 0.468216 6.31263 0.40177 0.0751826 0.671568 0.618001 
44 1 244.543 -1.48379 4.89177 0.540833 0.49761 0.458715 0.499465 
45 1 -499.604 248.301 1.38501 0.703069 0.672385 0.171832 0.155132 
46 1 -248.736 251.217 2.61156 0.752466 0.630398 0.170637 0.0852964 
47 1 0.386216 248.947 1.1689 0.0915334 0.182591 0.975071 0.0867082 
34 1 -244.924 494.651 6.58845 0.723787 0.32877 0.185494 0.577612 
50 1 -249.515 -497.392 249.883 0.49545 0.582726 0.454897 0.456101 
49 1 -499.445 -498.509 252.184 0.607787 0.60652 0.512551 0.00447535 
2 1 -248.879 498.951 496.004 0.781062 0.411636 0.333111 0.33096 
4 1 242.831 -499.652 499.654 0.0491772 0.817982 0.0912331 0.56583 
6 1 -247.867 -255.371 498.814 0.776813 0.535259 0.157286 0.292098 
11 1 -1.17327 -2.84914 495.409 0.577318 0.0340035 0.587496 0.566036 
12 1 251.813 2.21588 498.591 0.550584 0.539326 0.579199 0.265544 
15 1 9.305 247.333 497.622 0.496347 0.211834 0.457059 0.707009 
1 1 495.194 498.691 495.465 0.412273 0.121242 0.756028 0.493713 
ITEM: TIMESTEP
30000
ITEM: NUMBER OF ATOMS
50
ITEM: BOX BOUNDS pp pp pp
-5.0000000000000000e+02 5.0000000000000000e+02
-5.0000000000000000e+02 5.0000000000000000e+02
-5.0000000000000000e+02 5.0000000000000000e+02
ITEM: ATOMS id type x y z c_q[1] c_q[2] c_q[3] c_q[4] 
3 1 -8.56467 -492.286 -498.043 0.921825 0.36867 0.118343 0.0177958 
7 1 2.68021 -256.629 -493.68 0.541407 0.0356228 0.639551 0.544595 
8 1 260.295 -250.334 -497.097 0.476412 0.486559 0.676921 0.279411 
5 1 496.457 -250.903 -494.472 0.163602 0.613759 0.676127 0.373345 
10 1 -250.931 -1.48337 -490.162 0.40872 0.233652 0.626683 0.620986 
13 1 -492.942 248.249 -496.827 0.011873 0.758241 0.121047 0.640529 
14 1 -240.866 255.017 -497.18 0.567313 0.423249 0.700048 0.0945997 
16 1 251.394 247.917 -491.646 0.797483 -0.0921115 0.370712 0.467021 
18 1 -250.436 -496.102 -246.923 0.475066 0.103207 0.818826 0.305261 
19 1 -8.24993 -496.807 -250.214 0.510965 0.477085 0.605619 0.380171 
21 1 -494.899 -250.282 -249.432 0.0770602 0.832153 0.137325 0.531718 
22 1 -252.012 -254.565 -246.558 0.508533 0.427923 0.264182 0.698916 
23 1 7.37056 -255.436 -244.523 0.106852 0.612975 0.575083 0.531153 
24 1 248.253 -254.468 -254.865 0.196896 0.0636396 0.949381 0.236341 
27 1 4.69356 -3.13201 -261.16 0.676974 0.266165 0.659446 0.18972 
25 1 -492.722 2.48183 -245.903 0.663901 0.389776 0.0920361 0.631537 
26 1 -251.525 3.87237 -245.52 0.332627 0.621378 0.651451 0.280819 
28 1 248.822 12.412 -248.876 0.471669 0.519013 0.392826 0.594846 
30 1 -247.126 262.043 -248.926 0.141042 0.626627 0.612945 0.460156 
31 1 -0.531615 260.316 -247.636 0.204254 0.690284 0.692748 0.0434539 
32 1 248.883 255.049 -245.071 0.1472 0.149574 0.134923 0.968378 
29 1 493.626 242.518 -244.007 0.0514176 0.458218 0.0854432 0.883228 
17 1 -493.201 498.698 -252.503 0.272397 0.620954 0.618411 0.39722 
20 1 240.398 494.065 -248.79 0.074818 -0.013778 0.799044 0.596441 
35 1 4.03749 -499.588 -5.15134 0.146264 0.758556 0.549833 0.317623 
36 1 252.375 -496.599 -9.66706 0.204928 0.686447 0.648886 0.256402 
38 1 -241.791 -249.057 -5.70345 0.373603 0.906455 0.143009 0.13531 
39 1 1.39875 -252.597 -4.02652 0.927005 0.00245017 0.141748 0.347222 
40 1 247.131 -246.398 -2.83327 0.400918 0.0284467 0.0523119 0.914177 
37 1 497.552 -241.391 -1.19554 0.257896 0.667633 0.615008 0.33094 
45 1 -495.512 251.823 -3.10623 0.701141 0.650758 0.233631 0.174162 
47 1 4.77112 248.722 1.77151 0.0961802 0.245988 0.958141 0.110478 
48 1 254.461 247.208 -2.06758 0.372386 0.542995 0.690433 0.299645 
33 1 -492.406 -499.564 -3.94492 0.612361 0.718759 0.149409 0.293387 
42 1 -256.39 -7.30392 6.55605 0.438406 0.546356 0.52836 0.479719 
43 1 5.10633 -2.71024 8.86986 0.392029 0.111041 0.674891 0.615228 
44 1 245.15 -1.61835 7.70077 0.54906 0.46423 0.465516 0.516061 
41 1 497.358 0.916679 3.61573 0.237153 0.855681 0.391286 0.241793 
46 1 -249.125 256.012 7.91772 0.747735 0.622185 0.200982 0.115695 
34 1 -243.976 496.003 7.14345 0.667104 0.438493 0.199802 0.568133 
49 1 -495.797 -496.806 253.537 0.626542 0.622631 0.467928 -0.0286254 
50 1 -252.785 -499.594 247.456 0.513048 0.611169 0.444185 0.407375 
2 1 -248.162 -498.899 496.623 0.790785 0.393456 0.339151 0.323771 
4 1 244.375 -496.62 498.115 0.0318987 0.817607 0.0766053 0.569766 
1 1 496.22 -495.438 494.635 0.405569 0.102594 0.777102 0.470214 
6 1 -255.574 -254.412 495.18 0.790073 0.533475 0.0842222 0.289993 
11 1 -2.01056 -0.669722 497.359 0.587048 0.0381608 0.602815 0.539011 
9 1 489.673 1.11532 499.817 0.782625 0.348298 0.50441 0.108436 
12 1 245.865 4.74385 499.52 0.505683 0.530527 0.624553 0.269739 
15 1 9.89298 246.076 494.469 0.47539 0.214538 0.433237 0.735039 
ITEM: TIMESTEP
40000
ITEM: NUMBER OF ATOMS
50
ITEM: BOX BOUNDS pp pp pp
-5.0000000000000000e+02 5.0000000000000000e+02
-5.0000000000000000e+02 5.0000000000000000e+02
-5.0000000000000000e+02 5.0000000000000000e+02
ITEM: ATOMS id type x y z c_q[1] c_q[2] c_q[3] c_q[4] 
3 1 -9.75178 -495.328 -496.73 0.927652 0.346613 0.13209 0.0432828 
7 1 4.43447 -259.196 -493.634 0.541621 0.0476281 0.630923 0.553457 
8 1 258.26 -249.069 -497.565 0.458513 0.495622 0.682491 0.279877 
10 1 -250.613 -3.45638 -484.76 0.402206 0.2464 0.622003 0.625004 
12 1 243.182 6.38448 -496.866 0.476228 0.533821 0.634578 0.292493 
13 1 -485.009 243.627 499.467 -0.039758 0.719003 0.158206 0.675593 
14 1 -238.887 259.898 -488.95 0.56131 0.388096 0.717012 0.142147 
16 1 253.591 246.288 -495.199 0.772406 -0.137567 0.359482 0.505209 
18 1 -249.482 -496.144 -246.218 0.446153 0.0705303 0.82843 0.331174 
19 1 -4.79794 -497.085 -250.995 0.51737 0.501067 0.560693 0.408513 
21 1 -495.879 -249.911 -248.611 0.0541153 0.831565 0.118118 0.540018 
22 1 -247.698 -252.365 -244.317 0.513183 0.363632 0.251832 0.735524 
23 1 13.5151 -253.995 -246.354 0.131008 0.593935 0.561302 0.561265 
24 1 242.442 -256.095 -250.445 0.185476 0.0829782 0.960311 0.191091 
25 1 -488.061 -2.29614 -242.1 0.699759 0.401261 0.0861339 0.584729 
27 1 9.15659 -4.78486 -255.514 0.680093 0.292077 0.644159 0.192935 
26 1 -250.353 5.17405 -243.678 0.297119 0.640388 0.648973 0.28365 
28 1 246.697 9.67436 -250.092 0.48416 0.535069 0.368678 0.585975 
30 1 -248.571 260.481 -251.76 0.148916 0.628991 0.621774 0.442257 
31 1 1.50317 255.325 -244.792 0.198549 0.73374 0.648205 0.0450961 
32 1 247 252.689 -245.915 0.161137 0.0796097 0.107503 0.977824 
29 1 489.371 241.313 -244.848 0.0415315 0.419182 0.105475 0.900798 
17 1 -488.215 498.833 -246.583 0.284013 0.635574 0.60555 0.385605 
20 1 247.765 492.071 -242.217 0.0919912 -0.021295 0.795053 0.599145 
36 1 256.108 -498.491 -11.423 0.18068 0.715553 0.628799 0.244849 
38 1 -237.523 -246.67 -3.8084 0.399483 0.8863 0.184435 0.14446 
39 1 9.38679 -252.472 -8.05727 0.927658 -0.0116218 0.137874 0.346853 
37 1 491.855 -237.989 -5.13183 0.249767 0.718596 0.588829 0.272977 
45 1 -489.782 249.228 -4.74988 0.729606 0.629307 0.211299 0.16432 
48 1 257.878 246.288 -3.85915 0.404732 0.511861 0.695209 0.301454 
33 1 -495.183 496.793 -5.04836 0.629186 0.709316 0.16275 0.272963 
35 1 2.74136 495.623 -4.90041 0.113394 0.782999 0.52888 0.307149 
40 1 245.328 -248.897 1.62951 0.403787 -0.0502489 0.00515893 0.913457 
42 1 -260.975 -4.03627 5.14341 0.409671 0.536858 0.535545 0.507095 
43 1 7.88562 -5.56999 7.22934 0.370638 0.0710569 0.662595 0.646951 
44 1 247.456 -2.90695 10.2541 0.578477 0.427391 0.483289 0.499133 
41 1 495.171 0.463798 3.4742 0.20531 0.860005 0.370411 0.284667 
46 1 -249.761 258.019 7.53019 0.74271 0.620788 0.202746 0.147982 
47 1 7.58046 248.669 0.78574 0.0941495 0.263151 0.954408 0.104846 
34 1 -244.116 499.435 3.04764 0.702634 0.399561 0.143364 0.571054 
49 1 -494.708 -493.801 255.968 0.611707 0.593122 0.522645 -0.0293939 
50 1 -250.587 -499.328 254.97 0.524197 0.602088 0.424517 0.427192 
2 1 -247.851 -496.899 496.126 0.790526 0.394031 0.363369 0.296262 
4 1 244.095 -499.742 495.801 0.00514434 0.818935 0.125785 0.559909 
1 1 495.051 -497.186 488.384 0.381377 0.111406 0.792013 0.463525 
6 1 -254.483 -249.318 492.792 0.785436 0.546896 0.0719326 0.280751 
5 1 493.419 -248.348 496.261 0.14323 0.599135 0.684854 0.389226 
11 1 -1.89714 0.090551 498.255 0.566271 0.00305454 0.628233 0.533528 
9 1 494.403 2.35965 495.774 0.801657 0.351549 0.461286 0.144825 
15 1 11.2654 251.362 497.087 0.464657 0.280053 0.446947 0.711268 
ITEM: TIMESTEP
50000
ITEM: NUMBER OF ATOMS
50
ITEM: BOX BOUNDS pp pp pp
-5.0000000000000000e+02 5.0000000000000000e+02
-5.0000000000000000e+02 5.0000000000000000e+02
-5.0000000000000000e+02 5.0000000000000000e+02
ITEM: ATOMS id type x y z c_q[1] c_q[2] c_q[3] c_q[4] 
3 1 -0.696197 -498.856 -495.908 0.928362 0.343684 0.126258 0.0639033 
7 1 1.33184 -261.714 -495.617 0.559444 0.0101314 0.619563 0.550511 
8 1 262.78 -255.896 -496.872 0.48278 0.539033 0.623592 0.295803 
10 1 -250.283 -2.82405 -484.401 0.449771 0.252949 0.606771 0.604608 
13 1 -489.399 244.301 -499.29 -0.0307406 0.735781 0.112422 0.667115 
14 1 -241.927 263.556 -486.46 0.579999 0.419598 0.680065 0.15827 
16 1 249.114 250.262 -493.21 0.75331 -0.119317 0.411502 0.498952 
17 1 -488.822 -494.523 -245.597 0.262736 0.647369 0.607486 0.377948 
18 1 -249.474 -495.918 -248.559 0.462039 0.0653759 0.831657 0.300986 
19 1 -5.17007 -497.758 -248.157 0.548699 0.521386 0.540409 0.367484 
21 1 -492.066 -249.927 -252.192 0.0610079 0.832835 0.154658 0.527963 
22 1 -248.722 -252.411 -242.123 0.527218 0.285417 0.25413 0.758944 
23 1 10.7154 -258.419 -245.855 0.128006 0.636295 0.51032 0.564196 
24 1 241.317 -260.391 -247.493 0.196815 0.147173 0.956658 0.156237 
25 1 -491.363 -0.645585 -246.34 0.665233 0.354697 0.0966736 0.649853 
27 1 7.85094 -5.28087 -255.716 0.691887 0.297889 0.636417 0.165915 
26 1 -249.284 4.72474 -247.679 0.296613 0.652114 0.626155 0.30773 
28 1 243.88 5.62688 -256.086 0.49558 0.538709 0.378843 0.566279 
30 1 -249.769 260.605 -251.832 0.169625 0.582929 0.633181 0.480106 
31 1 2.24211 258.716 -249.73 0.258202 0.698824 0.662267 0.079872 
32 1 240.903 252.152 -246.036 0.19169 0.0752355 0.114734 0.971818 
29 1 491.104 239.698 -240.972 0.0025989 0.433697 0.14541 0.889244 
20 1 248.353 492.939 -245.394 0.0982484 -0.006761 0.783464 0.613584 
36 1 251.838 -496.806 -10.3551 0.177322 0.714888 0.639562 0.220121 
38 1 -242.139 -248.283 -6.80936 0.376207 0.895402 0.185116 0.149849 
39 1 15.0292 -250.977 -3.53325 0.922829 -0.0499357 0.110607 0.365595 
40 1 246.079 -251.212 -4.51567 0.375373 -0.0462034 -0.00848002 0.925683 
37 1 492.399 -234.31 -9.05238 0.290643 0.705572 0.557178 0.327487 
45 1 -489.639 242.22 -11.3438 0.704292 0.665033 0.19275 0.156692 
48 1 256.918 246.424 -2.43424 0.382893 0.490209 0.730321 0.282346 
33 1 -494.624 495.001 -5.41696 0.640891 0.699913 0.15087 0.276801 
35 1 1.6788 494.979 -5.84729 0.108555 0.80261 0.510488 0.288849 
34 1 -243.324 -499.271 4.2565 0.68364 0.424922 0.118228 0.581463 
42 1 -262.48 -5.91023 3.97338 0.450102 0.508872 0.527894 0.509692 
43 1 6.60427 -2.99817 4.74529 0.363263 0.0352149 0.68675 0.628629 
44 1 250.797 -0.618828 13.0157 0.603464 0.421908 0.461957 0.494389 
41 1 491.173 2.79684 4.47201 0.243706 0.848297 0.389103 0.263814 
46 1 -250.075 260.457 12.2941 0.716591 0.662522 0.190004 0.10705 
47 1 8.73747 250.992 1.05134 0.0296454 0.251647 0.961472 0.106617 
49 1 -494.907 -492.056 258.982 0.586026 0.604448 0.539602 -0.00679442 
50 1 -248.099 -495.211 252.301 0.552459 0.638904 0.348096 0.406719 
2 1 -246.958 -498.244 492.742 0.794663 0.417693 0.316683 0.306195 
4 1 244.867 -495.894 496.506 0.00329137 0.828418 0.145309 0.540923 
6 1 -257.877 -251.067 491.642 0.815754 0.503796 -0.00151763 0.284134 
5 1 489.517 -246.284 498.007 0.111478 0.570455 0.694723 0.423692 
11 1 -2.32386 -2.36625 495.202 0.574009 -0.0758797 0.606176 0.545259 
12 1 244.557 7.76191 -499.487 0.489259 0.496887 0.670241 0.25398 
9 1 493.864 7.69481 495.112 0.803782 0.348678 0.45372 0.162774 
15 1 12.3503 257.776 499.261 0.511341 0.240225 0.429696 0.704403 
1 1 496.145 -499.851 488.03 0.390628 0.112747 0.810232 0.422163 
ITEM: TIMESTEP
60000
ITEM: NUMBER OF ATOMS
50
ITEM: BOX BOUNDS pp pp pp
-5.0000000000000000e+02 5.0000000000000000e+02
-5.0000000000000000e+02 5.0000000000000000e+02
-5.0000000000000000e+02 5.0000000000000000e+02
ITEM: ATOMS id type x y z c_q[1] c_q[2] c_q[3] c_q[4] 
7 1 -0.865152 -258.856 -494.365 0.591939 0.0364256 0.586794 0.55132 
8 1 254.589 -255.023 -498.568 0.474155 0.559404 0.632849 0.248488 
10 1 -253.494 -3.76752 -482.034 0.454836 0.258102 0.594878 0.610432 
13 1 -490.742 238.557 -497.576 -0.0203437 0.773189 0.0842798 0.628221 
14 1 -242.415 265.627 -493.921 0.573735 0.422705 0.688458 0.134813 
15 1 12.9856 260.527 -499.08 0.495845 0.233542 0.417136 0.724978 
16 1 252.01 245.05 -494.797 0.781711 -0.138259 0.37096 0.481872 
3 1 -0.417862 497.549 -496.178 0.934684 0.318012 0.136294 0.0816034 
17 1 -488.112 -489.391 -244.633 0.261544 0.65333 0.579358 0.411216 
18 1 -247.469 -498.202 -247.926 0.453418 0.0509778 0.8309 0.318462 
21 1 -490.292 -246.373 -258.429 0.0619062 0.798852 0.177399 0.57143 
22 1 -249.415 -246.926 -241.76 0.556536 0.305475 0.277527 0.721062 
23 1 11.7995 -258.389 -247.516 0.140337 0.624899 0.526182 0.55941 
24 1 245.486 -258.871 -252.034 0.205651 0.131412 0.961989 0.12254 
25 1 -492.882 -2.23051 -251.743 0.687678 0.31584 0.0659079 0.650385 
27 1 10.5173 -8.9399 -253.675 0.700223 0.310015 0.623838 0.156217 
26 1 -252.115 12.4674 -254.362 0.272557 0.668075 0.629935 0.287352 
28 1 245.698 6.21834 -251.45 0.497319 0.551855 0.375625 0.554108 
30 1 -249.503 258.177 -242.394 0.21425 0.565014 0.639615 0.475131 
31 1 4.94278 263.041 -245.245 0.218145 0.704154 0.672016 0.0705295 
32 1 245.236 256.67 -242.963 0.208557 0.0481737 0.162283 0.963248 
29 1 493.222 237.366 -237.325 -0.0316307 0.42211 0.123871 0.897484 
19 1 -11.1691 497.653 -250.275 0.588901 0.503943 0.520529 0.358172 
20 1 247.358 495.187 -238.257 0.0925336 -0.0186675 0.76457 0.637591 
36 1 253.704 -499.8 -13.9555 0.18403 0.720973 0.622668 0.242106 
38 1 -239.338 -249.341 -9.50591 0.414162 0.888766 0.169235 0.0996233 
39 1 11.1263 -252.641 0.835295 0.933198 -0.0346484 0.066454 0.351462 
40 1 245.068 -251.69 -5.4346 0.404903 -0.0656345 0.00760605 0.911969 
37 1 495.561 -237 -4.4671 0.288207 0.718249 0.546391 0.320176 
45 1 -486.249 238.513 -10.9991 0.731013 0.626563 0.178613 0.202821 
48 1 257.07 245.205 -1.56091 0.417866 0.464888 0.722321 0.295838 
33 1 -493.666 489.777 -5.60818 0.637078 0.710272 0.0668699 0.291846 
35 1 -0.949954 495.071 0.224522 0.126128 0.794114 0.542042 0.244265 
42 1 -264.493 -8.05233 3.67316 0.411679 0.527702 0.568214 0.478732 
44 1 246.372 -3.68064 10.7185 0.617278 0.411059 0.428983 0.515726 
43 1 5.29829 1.27416 5.55112 0.362381 0.05338 0.68678 0.627824 
41 1 487.198 2.58124 6.48241 0.238877 0.857456 0.380026 0.25157 
46 1 -254.142 255.337 7.78766 0.708948 0.665652 0.161877 0.16762 
47 1 10.8372 248.649 3.70274 0.0291498 0.330652 0.93861 0.0939689 
34 1 -246.095 498.136 4.49835 0.692479 0.430573 0.10552 0.569162 
49 1 -491.836 -490.232 264.475 0.611766 0.564122 0.55397 0.0250222 
50 1 -248.168 -496.363 255.355 0.540865 0.661472 0.327064 0.40367 
4 1 240.878 -493.652 492.798 -0.00952674 0.822385 0.140326 0.551272 
1 1 496.978 -498.921 479.568 0.427955 0.110601 0.778295 0.445958 
6 1 -258.118 -252.325 494.589 0.826053 0.489547 -0.00936375 0.279094 
5 1 483.388 -251.86 499.101 0.101314 0.57301 0.707854 0.400422 
11 1 -5.93957 -3.62774 491.15 0.577975 -0.0491242 0.619126 0.529353 
12 1 250.85 13.5439 -499.814 0.512585 0.5273 0.632186 0.244032 
9 1 491.13 9.62006 493.892 0.83101 0.3423 0.415965 0.138659 
2 1 -246.265 -499.794 487.538 0.764162 0.412278 0.368945 0.331608 
ITEM: TIMESTEP
70000
ITEM: NUMBER OF ATOMS
50
ITEM: BOX BOUNDS pp pp pp
-5.0000000000000000e+02 5.0000000000000000e+02
-5.0000000000000000e+02 5.0000000000000000e+02
-5.0000000000000000e+02 5.0000000000000000e+02
ITEM: ATOMS id type x y z c_q[1] c_q[2] c_q[3] c_q[4] 
7 1 -1.53192 -259.817 -497.962 0.561817 0.0374602 0.619136 0.547383 
10 1 -254.827 -8.49048 -483.497 0.468508 0.227589 0.609792 0.597376 
12 1 248.432 8.97936 -494.867 0.521778 0.517773 0.610103 0.295691 
13 1 -492.259 240.46 -499.636 0.00217021 0.784848 0.04437 0.618094 
14 1 -243.033 263.92 -491.824 0.61785 0.413448 0.651561 0.150965 
15 1 15.44 260.702 -499.415 0.490006 0.230295 0.426832 0.724343 
16 1 254.921 247.528 -499.633 0.794828 -0.159722 0.320119 0.490165 
3 1 -0.622304 494.686 -494.127 0.932593 0.313311 0.138632 0.113525 
17 1 -493.47 -487.91 -251.783 0.278113 0.666777 0.560145 0.405339 
18 1 -249.788 -492.571 -249.735 0.44045 0.0413768 0.828756 0.342718 
21 1 -489.064 -242.716 -260.237 0.0382045 0.80828 0.155682 0.566558 
22 1 -252.99 -241.894 -249.562 0.533248 0.311156 0.283245 0.733894 
23 1 14.4416 -260.433 -247.678 0.113875 0.621536 0.529151 0.566325 
24 1 247.514 -260.186 -249.646 0.225141 0.1201 0.963455 0.0814983 
25 1 -490.157 -0.0166056 -251.917 0.696329 0.284337 0.0815502 0.653932 
27 1 15.9595 -9.86713 -250.924 0.700718 0.308511 0.629116 0.13427 
26 1 -254.551 8.51819 -255.261 0.301773 0.695184 0.582477 0.293891 
28 1 245.351 4.45739 -251.278 0.528081 0.533832 0.344306 0.563566 
30 1 -245.828 262.919 -246.898 0.242728 0.533973 0.622103 0.518597 
31 1 1.41351 265.665 -240.674 0.194979 0.679285 0.701477 0.0921155 
32 1 250.93 250.835 -247.735 0.180275 0.0527336 0.146165 0.971265 
29 1 489.603 233.868 -240.6 -0.0334072 0.451982 0.0924823 0.886591 
19 1 -12.3034 491.94 -249.801 0.578505 0.497647 0.512106 0.394242 
20 1 251.213 493.092 -236.194 0.117857 -0.034166 0.74043 0.660838 
36 1 258.538 -496.728 -16.5768 0.173585 0.715622 0.614124 0.283909 
38 1 -236.537 -250.246 -8.58836 0.394001 0.890927 0.179412 0.1372 
40 1 242.777 -253.891 -4.40657 0.405646 -0.0945548 -0.0145123 0.90901 
37 1 494.181 -237.079 -4.86583 0.28832 0.729743 0.525811 0.328435 
45 1 -486.781 234.864 -13.9006 0.744276 0.606619 0.190701 0.204205 
48 1 261.46 247.549 -4.16596 0.448059 0.440287 0.729999 0.269244 
33 1 -495.335 491.074 -5.70663 0.657438 0.701765 0.0434524 0.270948 
35 1 -1.32876 496.31 0.468675 0.0819887 0.79731 0.547619 0.240184 
39 1 14.0055 -256.99 2.23824 0.936212 0.00262223 0.0615234 0.345999 
42 1 -270.974 -4.99967 5.65692 0.395799 0.50929 0.598579 0.475048 
44 1 246.597 -3.91589 12.5527 0.566265 0.465784 0.456874 0.503642 
41 1 484.153 -2.77049 15.7155 0.24261 0.847988 0.389929 0.264598 
43 1 8.43379 8.50427 5.01468 0.381632 0.10523 0.653905 0.644742 
46 1 -253.824 253.107 8.5304 0.730653 0.644447 0.171636 0.146201 
47 1 10.6631 251.328 1.86192 0.0803129 0.376812 0.909846 0.154088 
34 1 -247.522 499.83 4.97028 0.671595 0.424388 0.0799506 0.602049 
49 1 -491.604 -495.406 265.25 0.627047 0.533345 0.563844 0.0665955 
50 1 -246.115 -495.571 259.551 0.553159 0.650363 0.334727 0.398749 
2 1 -247.286 -493.678 484.393 0.770039 0.400203 0.357338 0.345235 
4 1 240.184 -490.885 490.558 -0.0588051 0.851636 0.113158 0.508384 
6 1 -256.165 -250.862 496.106 0.824675 0.480363 -0.014997 0.298223 
8 1 251.388 -252.129 497.06 0.441104 0.541378 0.659488 0.278231 
5 1 483.18 -252.995 497.907 0.121133 0.575552 0.698869 0.407 
11 1 0.676565 -8.30235 489.342 0.579852 -0.0465853 0.624792 0.520804 
9 1 488.198 10.1221 492.944 0.84055 0.341317 0.408316 0.101272 
1 1 496.513 499.358 477.462 0.464278 0.104649 0.739339 0.476311 
ITEM: TIMESTEP
80000
ITEM: NUMBER OF ATOMS
50
ITEM: BOX BOUNDS pp pp pp
-5.0000000000000000e+02 5.0000000000000000e+02
-5.0000000000000000e+02 5.0000000000000000e+02
-5.0000000000000000e+02 5.0000000000000000e+02
ITEM: ATOMS id type x y z c_q[1] c_q[2] c_q[3] c_q[4] 
7 1 0.249639 -257.15 -494.024 0.572315 0.0240212 0.588846 0.57021 
5 1 479.16 -257.507 -497.173 0.0964371 0.590569 0.698596 0.392289 
10 1 -258.039 -8.77139 -483.491 0.467268 0.183397 0.618637 0.604413 
12 1 248.208 9.63221 -493.886 0.502192 0.501502 0.61901 0.33634 
14 1 -246.69 267.075 -486.567 0.631672 0.364273 0.659208 0.183687 
15 1 18.9967 253.523 -499.713 0.536477 0.242641 0.392801 0.706417 
16 1 251.784 244.66 -499.587 0.773281 -0.128428 0.371843 0.497268 
3 1 -0.0997226 497.797 -492.125 0.925086 0.326278 0.153836 0.118719 
17 1 -489.824 -488.69 -250.296 0.235947 0.687054 0.544701 0.419031 
18 1 -250.396 -495.081 -252.064 0.425557 -0.0360116 0.825712 0.368515 
21 1 -490.364 -243.655 -254.726 0.0531301 0.832963 0.117628 0.538065 
22 1 -258.652 -233.149 -247.851 0.548972 0.305652 0.263851 0.731839 
23 1 18.4134 -257.812 -252.117 0.103442 0.578019 0.579108 0.565533 
24 1 247.814 -264.174 -245.282 0.254827 0.109118 0.958252 0.0700675 
25 1 -484.635 -6.6048 -250.55 0.694252 0.298837 0.0999221 0.64709 
27 1 13.1266 -11.6463 -250.43 0.688551 0.295215 0.646548 0.143948 
26 1 -250.228 3.67629 -253.363 0.323435 0.700452 0.560353 0.301267 
28 1 253.211 2.65323 -253.51 0.548894 0.49269 0.348482 0.578388 
30 1 -247.234 262.438 -246.771 0.296693 0.540832 0.601546 0.507559 