LAMMPS data file

55 atoms
55 ellipsoids
0 bonds
0 angles
0 dihedrals

1 atom types
0 bond types
0 angle types
0 dihedral types

-500.000000 500.000000 xlo xhi
-500.000000 500.000000 ylo yhi
-500.000000 500.000000 zlo zhi

Masses

1 203166.000000

Atoms

1 1 -500.000000 -500.000000 -500.000000 1 1.000000 3 0.000000
2 1 -250.000000 -500.000000 -500.000000 1 1.000000 4 0.000000
3 1 0.000000 -500.000000 -500.000000 1 1.000000 5 0.000000
4 1 250.000000 -500.000000 -500.000000 1 1.000000 6 0.000000
5 1 -500.000000 -250.000000 -500.000000 1 1.000000 7 0.000000
6 1 -250.000000 -250.000000 -500.000000 1 1.000000 8 0.000000
7 1 0.000000 -250.000000 -500.000000 1 1.000000 9 0.000000
8 1 250.000000 -250.000000 -500.000000 1 1.000000 10 0.000000
9 1 -500.000000 0.000000 -500.000000 1 1.000000 11 0.000000
10 1 -250.000000 0.000000 -500.000000 1 1.000000 12 0.000000
11 1 0.000000 0.000000 -500.000000 1 1.000000 13 0.000000
12 1 250.000000 0.000000 -500.000000 1 1.000000 14 0.000000
13 1 -500.000000 250.000000 -500.000000 1 1.000000 15 0.000000
14 1 -250.000000 250.000000 -500.000000 1 1.000000 16 0.000000
15 1 0.000000 250.000000 -500.000000 1 1.000000 17 0.000000
16 1 250.000000 250.000000 -500.000000 1 1.000000 18 0.000000
17 1 -500.000000 -500.000000 -250.000000 1 1.000000 19 0.000000
18 1 -250.000000 -500.000000 -250.000000 1 1.000000 20 0.000000
19 1 0.000000 -500.000000 -250.000000 1 1.000000 21 0.000000
20 1 250.000000 -500.000000 -250.000000 1 1.000000 22 0.000000
21 1 -500.000000 -250.000000 -250.000000 1 1.000000 23 0.000000
22 1 -250.000000 -250.000000 -250.000000 1 1.000000 24 0.000000
23 1 0.000000 -250.000000 -250.000000 1 1.000000 25 0.000000
24 1 250.000000 -250.000000 -250.000000 1 1.000000 26 0.000000
25 1 -500.000000 0.000000 -250.000000 1 1.000000 27 0.000000
26 1 -250.000000 0.000000 -250.000000 1 1.000000 28 0.000000
27 1 0.000000 0.000000 -250.000000 1 1.000000 29 0.000000
28 1 250.000000 0.000000 -250.000000 1 1.000000 30 0.000000
29 1 -500.000000 250.000000 -250.000000 1 1.000000 31 0.000000
30 1 -250.000000 250.000000 -250.000000 1 1.000000 32 0.000000
31 1 0.000000 250.000000 -250.000000 1 1.000000 33 0.000000
32 1 250.000000 250.000000 -250.000000 1 1.000000 34 0.000000
33 1 -500.000000 -500.000000 0.000000 1 1.000000 35 0.000000
34 1 -250.000000 -500.000000 0.000000 1 1.000000 36 0.000000
35 1 0.000000 -500.000000 0.000000 1 1.000000 37 0.000000
36 1 250.000000 -500.000000 0.000000 1 1.000000 38 0.000000
37 1 -500.000000 -250.000000 0.000000 1 1.000000 39 0.000000
38 1 -250.000000 -250.000000 0.000000 1 1.000000 40 0.000000
39 1 0.000000 -250.000000 0.000000 1 1.000000 41 0.000000
40 1 250.000000 -250.000000 0.000000 1 1.000000 42 0.000000
41 1 -500.000000 0.000000 0.000000 1 1.000000 43 0.000000
42 1 -250.000000 0.000000 0.000000 1 1.000000 44 0.000000
43 1 0.000000 0.000000 0.000000 1 1.000000 45 0.000000
44 1 250.000000 0.000000 0.000000 1 1.000000 46 0.000000
45 1 -500.000000 250.000000 0.000000 1 1.000000 47 0.000000
46 1 -250.000000 250.000000 0.000000 1 1.000000 48 0.000000
47 1 0.000000 250.000000 0.000000 1 1.000000 49 0.000000
48 1 250.000000 250.000000 0.000000 1 1.000000 50 0.000000
49 1 -500.000000 -500.000000 250.000000 1 1.000000 51 0.000000
50 1 -250.000000 -500.000000 250.000000 1 1.000000 52 0.000000
51 1 0.000000 -500.000000 250.000000 1 1.000000 53 0.000000
52 1 250.000000 -500.000000 250.000000 1 1.000000 54 0.000000
53 1 -500.000000 -250.000000 250.000000 1 1.000000 55 0.000000
54 1 -250.000000 -250.000000 250.000000 1 1.000000 56 0.000000
55 1 0.000000 -250.000000 250.000000 1 1.000000 57 0.000000

Ellipsoids

1 55.000000 110.000000 110.000000 0.395633 0.293386 0.437995 0.752037
2 55.000000 110.000000 110.000000 0.643105 0.704890 0.299077 0.009981
3 55.000000 110.000000 110.000000 0.545965 0.741308 0.032642 0.388998
4 55.000000 110.000000 110.000000 0.200685 0.457980 0.285798 0.817496
5 55.000000 110.000000 110.000000 0.320548 0.740477 0.444383 0.389187
6 55.000000 110.000000 110.000000 0.249572 0.240338 0.937813 0.021392
7 55.000000 110.000000 110.000000 0.569662 0.072689 0.457764 0.678714
8 55.000000 110.000000 110.000000 0.756438 0.111269 0.633587 0.118272
9 55.000000 110.000000 110.000000 0.122103 0.458891 0.675557 0.564033
10 55.000000 110.000000 110.000000 0.344190 0.592455 0.274591 0.674633
11 55.000000 110.000000 110.000000 0.501681 0.507425 0.159921 0.682100
12 55.000000 110.000000 110.000000 0.072563 0.150307 0.870073 0.463806
13 55.000000 110.000000 110.000000 0.702235 0.057051 0.279939 0.652109
14 55.000000 110.000000 110.000000 0.593807 0.334164 0.686070 0.255020
15 55.000000 110.000000 110.000000 0.162330 0.586195 0.713071 0.348646
16 55.000000 110.000000 110.000000 0.671227 0.056639 0.683384 0.281482
17 55.000000 110.000000 110.000000 0.396074 0.207933 0.807886 0.383678
18 55.000000 110.000000 110.000000 0.222602 0.599436 0.428705 0.638229
19 55.000000 110.000000 110.000000 0.021943 0.857828 0.427613 0.284247
20 55.000000 110.000000 110.000000 0.673051 0.260690 0.556647 0.411324
21 55.000000 110.000000 110.000000 0.837252 0.176605 0.428397 0.290337
22 55.000000 110.000000 110.000000 0.428593 0.302781 0.803388 0.281422
23 55.000000 110.000000 110.000000 0.146826 0.376776 0.533128 0.743139
24 55.000000 110.000000 110.000000 0.135291 0.976815 0.141392 0.086822
25 55.000000 110.000000 110.000000 0.678172 0.143459 0.650788 0.309803
26 55.000000 110.000000 110.000000 0.472081 0.516231 0.065781 0.711560
27 55.000000 110.000000 110.000000 0.673530 0.205354 0.326061 0.630770
28 55.000000 110.000000 110.000000 0.519993 0.427003 0.409016 0.616427
29 55.000000 110.000000 110.000000 0.405350 0.155326 0.402515 0.805945
30 55.000000 110.000000 110.000000 0.567438 0.724943 0.090994 0.379727
31 55.000000 110.000000 110.000000 0.671110 0.632240 0.111718 0.370679
32 55.000000 110.000000 110.000000 0.943740 0.075747 0.281201 0.156665
33 55.000000 110.000000 110.000000 0.558359 0.527328 0.166797 0.618336
34 55.000000 110.000000 110.000000 0.818238 0.056878 0.452423 0.350092
35 55.000000 110.000000 110.000000 0.490012 0.070102 0.402594 0.769995
36 55.000000 110.000000 110.000000 0.555838 0.395002 0.721179 0.122141
37 55.000000 110.000000 110.000000 0.213461 0.137916 0.965831 0.050832
38 55.000000 110.000000 110.000000 0.291220 0.783417 0.250548 0.488544
39 55.000000 110.000000 110.000000 0.680655 0.070199 0.087825 0.723925
40 55.000000 110.000000 110.000000 0.495193 0.547575 0.561633 0.373515
41 55.000000 110.000000 110.000000 0.138996 0.528534 0.681940 0.486097
42 55.000000 110.000000 110.000000 0.406767 0.541154 0.576172 0.457950
43 55.000000 110.000000 110.000000 0.344450 0.200608 0.457450 0.794890
44 55.000000 110.000000 110.000000 0.772664 0.087352 0.615304 0.129461
45 55.000000 110.000000 110.000000 0.529850 0.160813 0.527357 0.644432
46 55.000000 110.000000 110.000000 0.475591 0.237575 0.659357 0.531619
47 55.000000 110.000000 110.000000 0.409552 0.617956 0.378655 0.554092
48 55.000000 110.000000 110.000000 0.325943 0.290893 0.583184 0.684864
49 55.000000 110.000000 110.000000 0.377003 0.596429 0.186108 0.683744
50 55.000000 110.000000 110.000000 0.462927 0.473759 0.407875 0.628401
51 55.000000 110.000000 110.000000 0.488928 0.206525 0.070066 0.844623
52 55.000000 110.000000 110.000000 0.604323 0.033489 0.082568 0.791741
53 55.000000 110.000000 110.000000 0.433457 0.665206 0.602338 0.082500
54 55.000000 110.000000 110.000000 0.857657 0.268500 0.311315 0.308894
55 55.000000 110.000000 110.000000 0.318902 0.358912 0.708845 0.516743




