ITEM: TIMESTEP
0
ITEM: NUMBER OF ATOMS
55
ITEM: BOX BOUNDS pp pp pp
-5.0000000000000000e+02 5.0000000000000000e+02
-5.0000000000000000e+02 5.0000000000000000e+02
-5.0000000000000000e+02 5.0000000000000000e+02
ITEM: ATOMS id type x y z c_q[1] c_q[2] c_q[3] c_q[4] 
1 1 -500 -500 -500 0.395633 0.293386 0.437995 0.752037 
2 1 -250 -500 -500 0.643105 0.70489 0.299077 0.009981 
3 1 0 -500 -500 0.545965 0.741308 0.032642 0.388998 
4 1 250 -500 -500 0.200685 0.45798 0.285798 0.817496 
5 1 -500 -250 -500 0.320548 0.740477 0.444383 0.389187 
6 1 -250 -250 -500 0.249572 0.240338 0.937813 0.021392 
7 1 0 -250 -500 0.569662 0.072689 0.457764 0.678714 
8 1 250 -250 -500 0.756438 0.111269 0.633587 0.118272 
9 1 -500 0 -500 0.122103 0.458891 0.675557 0.564033 
10 1 -250 0 -500 0.34419 0.592455 0.274591 0.674633 
11 1 0 0 -500 0.501681 0.507425 0.159921 0.6821 
12 1 250 0 -500 0.072563 0.150307 0.870073 0.463806 
13 1 -500 250 -500 0.702235 0.057051 0.279939 0.652109 
14 1 -250 250 -500 0.593807 0.334164 0.68607 0.25502 
15 1 0 250 -500 0.16233 0.586195 0.713071 0.348646 
16 1 250 250 -500 0.671227 0.056639 0.683384 0.281482 
17 1 -500 -500 -250 0.396074 0.207933 0.807886 0.383678 
18 1 -250 -500 -250 0.222602 0.599436 0.428705 0.638229 
19 1 0 -500 -250 0.021943 0.857828 0.427613 0.284247 
20 1 250 -500 -250 0.673051 0.26069 0.556647 0.411324 
21 1 -500 -250 -250 0.837252 0.176605 0.428397 0.290337 
22 1 -250 -250 -250 0.428593 0.302781 0.803388 0.281422 
23 1 0 -250 -250 0.146826 0.376776 0.533128 0.743139 
24 1 250 -250 -250 0.135291 0.976815 0.141392 0.086822 
25 1 -500 0 -250 0.678172 0.143459 0.650788 0.309803 
26 1 -250 0 -250 0.472081 0.516231 0.065781 0.71156 
27 1 0 0 -250 0.67353 0.205354 0.326061 0.63077 
28 1 250 0 -250 0.519993 0.427003 0.409016 0.616427 
29 1 -500 250 -250 0.40535 0.155326 0.402515 0.805945 
30 1 -250 250 -250 0.567438 0.724943 0.090994 0.379727 
31 1 0 250 -250 0.67111 0.63224 0.111718 0.370679 
32 1 250 250 -250 0.94374 0.075747 0.281201 0.156665 
33 1 -500 -500 0 0.558359 0.527328 0.166797 0.618336 
34 1 -250 -500 0 0.818238 0.056878 0.452423 0.350092 
35 1 0 -500 0 0.490012 0.070102 0.402594 0.769995 
36 1 250 -500 0 0.555838 0.395002 0.721179 0.122141 
37 1 -500 -250 0 0.213461 0.137916 0.965831 0.050832 
38 1 -250 -250 0 0.29122 0.783417 0.250548 0.488544 
39 1 0 -250 0 0.680655 0.070199 0.087825 0.723925 
40 1 250 -250 0 0.495193 0.547575 0.561633 0.373515 
41 1 -500 0 0 0.138996 0.528534 0.68194 0.486097 
42 1 -250 0 0 0.406767 0.541154 0.576172 0.45795 
43 1 0 0 0 0.34445 0.200608 0.45745 0.79489 
44 1 250 0 0 0.772664 0.087352 0.615304 0.129461 
45 1 -500 250 0 0.52985 0.160813 0.527357 0.644432 
46 1 -250 250 0 0.475591 0.237575 0.659357 0.531619 
47 1 0 250 0 0.409552 0.617956 0.378655 0.554092 
48 1 250 250 0 0.325943 0.290893 0.583184 0.684864 
49 1 -500 -500 250 0.377003 0.596429 0.186108 0.683744 
50 1 -250 -500 250 0.462927 0.473759 0.407875 0.628401 
51 1 0 -500 250 0.488928 0.206525 0.070066 0.844623 
52 1 250 -500 250 0.604323 0.033489 0.082568 0.791741 
53 1 -500 -250 250 0.433457 0.665206 0.602338 0.0824999 
54 1 -250 -250 250 0.857657 0.2685 0.311315 0.308894 
55 1 0 -250 250 0.318902 0.358912 0.708845 0.516743 
ITEM: TIMESTEP
10000
ITEM: NUMBER OF ATOMS
55
ITEM: BOX BOUNDS pp pp pp
-5.0000000000000000e+02 5.0000000000000000e+02
-5.0000000000000000e+02 5.0000000000000000e+02
-5.0000000000000000e+02 5.0000000000000000e+02
ITEM: ATOMS id type x y z c_q[1] c_q[2] c_q[3] c_q[4] 
3 1 0.814262 -497.707 -492.626 0.513651 0.760077 0.0555716 0.394154 
1 1 -499.768 -492.019 -498.232 0.379899 0.282426 0.418344 0.775178 
9 1 -499.718 -1.69892 -494.749 0.105933 0.458275 0.672433 0.571486 
11 1 -4.29051 -1.669 -500.016 0.516481 0.550745 0.158757 0.636179 
10 1 -252.474 1.34857 -494.157 0.313818 0.581775 0.278909 0.696611 
14 1 -248.553 253.461 -498.224 0.621955 0.311245 0.668004 0.264705 
15 1 2.33871 247.378 -497.207 0.195178 0.56463 0.735896 0.318677 
4 1 248.935 497.608 -495.435 0.190011 0.48943 0.23181 0.818913 
20 1 248.492 -494.093 -248.769 0.629708 0.235006 0.600714 0.432878 
22 1 -253.282 -254.614 -247.081 0.411744 0.336658 0.796059 0.288821 
23 1 -0.571732 -253.069 -244.35 0.157524 0.397251 0.532845 0.73038 
24 1 248.942 -248.087 -248.572 0.139084 0.969177 0.160188 0.125264 
21 1 497.172 -249.016 -246.924 0.819434 0.186524 0.444673 0.309842 
26 1 -243.511 -5.79181 -254.402 0.449836 0.528474 0.075968 0.715955 
28 1 252.189 -2.62241 -248.924 0.527619 0.430041 0.41554 0.603332 
25 1 496.924 -4.92698 -246.066 0.615681 0.143818 0.720439 0.284992 
27 1 4.60278 0.151653 -244.497 0.66368 0.245281 0.309859 0.635101 
30 1 -247.79 242.826 -254.03 0.567328 0.694891 0.154905 0.413847 
31 1 0.24139 247.138 -251.221 0.653909 0.627133 0.120097 0.405812 
32 1 253.048 254.397 -253.087 0.941403 0.0927666 0.249082 0.207637 
29 1 496.479 248.489 -247.281 0.365032 0.184167 0.396192 0.822111 
18 1 -247.73 495.529 -241.078 0.199317 0.575681 0.433687 0.663912 
19 1 -0.47339 500.057 -246.639 0.0604619 0.839507 0.446734 0.303316 
17 1 499.801 499.582 -246.245 0.351457 0.220024 0.830477 0.371988 
38 1 -243.939 -252.397 -2.17117 0.28943 0.77436 0.238385 0.509675 
40 1 253.472 -249.897 -4.14352 0.527751 0.519123 0.552318 0.383321 
42 1 -250.884 4.00655 -1.46918 0.405147 0.510783 0.60375 0.45874 
48 1 246.728 245.153 0.144119 0.356582 0.338455 0.55181 0.673649 
34 1 -253.31 -495.769 2.64005 0.815908 0.00926929 0.456163 0.355138 
35 1 1.99002 -498.882 1.37721 0.464323 0.0267977 0.387546 0.795923 
37 1 -498.34 -256.231 8.12303 0.185652 0.111898 0.97463 0.0557447 
39 1 2.96872 -252.024 3.53042 0.650333 0.0819771 0.13218 0.743556 
41 1 -494.499 -1.78537 1.10475 0.162358 0.528098 0.687813 0.470813 
43 1 -3.69214 -0.949315 1.05849 0.366473 0.210037 0.458566 0.781856 
44 1 251.377 2.63187 -0.632836 0.760655 0.101432 0.631751 0.109572 
46 1 -253.616 243.685 5.1362 0.45727 0.243999 0.683804 0.513595 
47 1 -1.72214 247.123 0.501726 0.405045 0.644861 0.37337 0.529798 
45 1 498.897 249.681 -0.432796 0.561239 0.181484 0.507438 0.628157 
33 1 -496.751 499.428 0.352871 0.597935 0.532394 0.168643 0.57497 
36 1 248.797 497.483 5.40589 0.555953 0.38671 0.720441 0.149454 
51 1 -4.83575 -498.145 249.185 0.473932 0.278907 0.064038 0.832766 
52 1 244.634 -499.167 251.315 0.608938 -0.0144231 0.0665844 0.790287 
54 1 -249.958 -251.521 246.888 0.85495 0.28321 0.320385 0.293608 
55 1 4.06409 -250.642 250.19 0.354479 0.338028 0.706387 0.510979 
53 1 497.642 -250.803 248.845 0.402623 0.680804 0.611875 -0.00328347 
50 1 -244.215 -499.496 252.572 0.479158 0.506358 0.377464 0.609533 
49 1 496.099 499.276 249.406 0.394634 0.555625 0.201296 0.70358 
2 1 -248.207 -498.281 496.027 0.65074 0.659995 0.375338 0.00811725 
6 1 -252.511 -249.574 496.822 0.224924 0.20499 0.952354 0.0202499 
7 1 6.70474 -247.228 496.798 0.583628 0.0675324 0.441625 0.678075 
8 1 251.914 -256.983 499.082 0.725606 0.0668441 0.673241 0.1256 
5 1 499.545 -250.141 495.369 0.318849 0.718989 0.459993 0.412063 
12 1 251.447 -0.125584 494.091 0.0621158 0.151147 0.863193 0.477697 
13 1 -499.537 254.304 497.495 0.732944 0.0893997 0.260298 0.62213 
16 1 257.175 253.483 496.843 0.714778 0.0326532 0.65321 0.247674 
ITEM: TIMESTEP
20000
ITEM: NUMBER OF ATOMS
55
ITEM: BOX BOUNDS pp pp pp
-5.0000000000000000e+02 5.0000000000000000e+02
-5.0000000000000000e+02 5.0000000000000000e+02
-5.0000000000000000e+02 5.0000000000000000e+02
ITEM: ATOMS id type x y z c_q[1] c_q[2] c_q[3] c_q[4] 
3 1 3.66486 498.109 -491.033 0.503292 0.767473 0.0835907 0.388194 
9 1 -499.609 -3.19478 -494.503 0.0727925 0.423581 0.695135 0.576252 
10 1 -253.089 1.35173 -498.07 0.279145 0.597767 0.234262 0.714055 
11 1 0.803155 0.846011 -498.807 0.50933 0.556167 0.118549 0.645916 
14 1 -250.003 253.8 -497.612 0.579122 0.296265 0.710955 0.267184 
15 1 -1.29126 249.329 -491.224 0.20624 0.550053 0.737598 0.332951 
4 1 253.131 499.214 -491.555 0.177203 0.487404 0.25881 0.814895 
17 1 -499.919 -495.209 -244.726 0.314139 0.249218 0.857212 0.323102 
19 1 -3.2709 -495.245 -247.356 0.0504955 0.845552 0.442828 0.293931 
20 1 247.457 -494.136 -244.879 0.622827 0.279596 0.601033 0.415538 
21 1 -497.595 -256.466 -246.424 0.81125 0.184559 0.46508 0.302509 
22 1 -252.288 -252.51 -249.127 0.386499 0.344388 0.799475 0.304721 
23 1 -5.37919 -256.388 -244.158 0.210865 0.39122 0.521243 0.728552 
24 1 243.685 -253.093 -251.241 0.132964 0.970076 0.171503 0.108905 
26 1 -247.574 -8.20926 -254.625 0.450098 0.468064 0.0872527 0.755457 
28 1 248.158 -6.07905 -255.59 0.507097 0.440186 0.397766 0.625196 
25 1 497.699 -1.61298 -246.212 0.619644 0.127765 0.70899 0.311529 
27 1 2.97322 0.500977 -245.125 0.640413 0.281957 0.326005 0.635683 
30 1 -247.712 241.698 -251.977 0.602398 0.685657 0.11425 0.392349 
31 1 0.855358 243.472 -253.479 0.677963 0.630374 0.104842 0.363322 
32 1 257.533 252.199 -258.371 0.927197 0.0951218 0.294783 0.210622 
29 1 494.42 247.562 -247.795 0.336157 0.228487 0.389336 0.826565 
18 1 -243.322 497.22 -243.857 0.183358 0.559956 0.430038 0.684029 
38 1 -247.185 -253.915 -8.81375 0.236047 0.790228 0.225573 0.518593 
40 1 262.028 -250.103 -0.937792 0.535381 0.520716 0.555547 0.365499 
43 1 -3.51527 -4.97937 -3.04562 0.395032 0.203506 0.498919 0.744053 
42 1 -245.62 6.11001 -0.926332 0.440937 0.487085 0.594443 0.463639 
47 1 2.30198 247.948 -6.6173 0.387913 0.668446 0.361242 0.521735 
34 1 -257.01 -495.05 2.82919 0.806719 -0.0170473 0.469722 0.358155 
35 1 4.40566 499.615 1.01778 0.451928 0.0126977 0.38689 0.803689 
39 1 0.904433 -252.655 9.57285 0.616006 0.112426 0.117088 0.770836 
37 1 497.213 -258.484 10.9072 0.195442 0.0872242 0.975866 0.0433495 
41 1 -499.96 -1.1589 3.72805 0.16562 0.498903 0.710338 0.468067 
44 1 252.574 5.38312 2.24976 0.797188 0.0536277 0.584624 0.140818 
46 1 -257.569 240.787 8.35614 0.453046 0.282917 0.6849 0.495601 
48 1 243.805 244.382 5.4434 0.346056 0.348053 0.57879 0.651235 
45 1 -499.719 256.476 0.342889 0.559942 0.115808 0.499551 0.65077 
33 1 -497.125 497.676 3.52327 0.597206 0.5099 0.183294 0.591397 
36 1 251.867 499.966 6.21809 0.530753 0.391141 0.742771 0.116624 
51 1 -3.08636 -495.952 244.822 0.485331 0.289911 0.0314301 0.824268 
52 1 248.582 -496.418 250.159 0.611868 -0.0143232 0.054267 0.788966 
49 1 489.257 -495.51 245.779 0.400855 0.582595 0.138063 0.693424 
54 1 -253.76 -253.127 248.479 0.848178 0.315757 0.325968 0.273195 
55 1 8.11805 -245.344 249.466 0.362028 0.346098 0.670681 0.547119 
53 1 496.914 -248.514 249.913 0.421178 0.694919 0.579491 0.0623441 
50 1 -245.843 498.598 253.09 0.435736 0.524785 0.417404 0.600424 
2 1 -251.422 -494.39 497.346 0.647134 0.639438 0.414906 -0.0137455 
1 1 498.33 -493.325 498.208 0.38409 0.298582 0.434408 0.758033 
6 1 -252.615 -249.642 497.143 0.254433 0.293755 0.91978 0.0545572 
7 1 10.3681 -249.937 497.84 0.576657 0.0968147 0.468718 0.662116 
8 1 248.734 -249.526 496.888 0.774249 0.0470182 0.629095 0.0506688 
5 1 492.713 -248.012 497.264 0.362737 0.685446 0.486722 0.402104 
12 1 254.399 -0.230339 494.246 0.0675333 0.123167 0.865845 0.480189 
16 1 257.626 250.403 495.679 0.661407 0.0707382 0.70303 0.251567 
13 1 497.433 264.579 496.66 0.740165 0.0783693 0.273675 0.609192 
ITEM: TIMESTEP
30000
ITEM: NUMBER OF ATOMS
55
ITEM: BOX BOUNDS pp pp pp
-5.0000000000000000e+02 5.0000000000000000e+02
-5.0000000000000000e+02 5.0000000000000000e+02
-5.0000000000000000e+02 5.0000000000000000e+02
ITEM: ATOMS id type x y z c_q[1] c_q[2] c_q[3] c_q[4] 
9 1 495.587 -3.90009 -491.701 0.0673324 0.407368 0.698342 0.584667 
15 1 4.21789 252.71 -494.774 0.202958 0.537746 0.747037 0.334025 
3 1 5.09101 498.47 -498.164 0.50915 0.761983 0.0306134 0.399013 
4 1 254.07 497.457 -490.903 0.216714 0.45951 0.233145 0.829173 
20 1 250.55 -494.668 -244.429 0.651695 0.292359 0.582755 0.387577 
17 1 498.499 -495.819 -243.753 0.356556 0.256481 0.837282 0.325645 
21 1 -496.518 -258.436 -249.87 0.835406 0.125613 0.423627 0.326891 
22 1 -250.711 -257.186 -250.664 0.396341 0.282884 0.811956 0.321896 
23 1 -6.88141 -257.154 -243.767 0.186824 0.386994 0.482347 0.76333 
24 1 238.801 -249.599 -258.86 0.10736 0.972947 0.174632 0.106542 
26 1 -247.731 -9.89017 -257.736 0.478471 0.470525 0.0902522 0.735885 
28 1 250.083 -3.16269 -258.48 0.474031 0.470353 0.375551 0.64267 
25 1 496.401 -3.00178 -247.445 0.611417 0.0929825 0.724439 0.304485 
27 1 2.11061 4.08015 -243.305 0.620324 0.310639 0.331427 0.639419 
30 1 -244.801 244.249 -253.189 0.605588 0.68674 0.1159 0.384992 
31 1 3.98537 239.65 -252.929 0.671332 0.633221 0.179266 0.340893 
32 1 258.246 251.634 -259.378 0.938625 0.0638098 0.26113 0.216157 
29 1 489.161 251.861 -246.43 0.311025 0.253476 0.399607 0.824214 
18 1 -239.223 494.052 -240.583 0.209859 0.556379 0.423744 0.683259 
19 1 -4.69907 497.397 -250.562 0.0814287 0.874272 0.384783 0.284536 
38 1 -246.172 -249.876 -6.35713 0.237694 0.75779 0.200098 0.573774 
43 1 -0.272065 -10.6601 -3.35647 0.415837 0.191624 0.529999 0.713766 
42 1 -249.216 8.48776 -1.91291 0.433166 0.450927 0.59048 0.510261 
47 1 -2.43908 249.581 -2.45853 0.404091 0.688753 0.316237 0.512175 
34 1 -256.944 -496.397 4.98601 0.812941 0.00749114 0.472776 0.339932 
39 1 1.00658 -251.67 8.47054 0.626873 0.113027 0.162431 0.753573 
40 1 262.923 -252.191 1.2092 0.476178 0.513944 0.58466 0.409009 
37 1 499.403 -252.808 7.98458 0.213543 0.115649 0.969069 0.0439368 
41 1 494.485 -0.229416 -0.653974 0.164162 0.518738 0.703498 0.457223 
44 1 250.69 4.706 2.76914 0.775242 0.0997639 0.613969 0.109951 
45 1 -495.137 262.033 0.949556 0.563834 0.0920825 0.461094 0.678973 
46 1 -260.938 241.64 9.64008 0.434579 0.323326 0.677892 0.497055 
48 1 249.186 239.791 2.44665 0.397057 0.346696 0.577652 0.62327 
33 1 -497.284 498.654 6.13322 0.665628 0.477316 0.116393 0.561749 
35 1 2.00407 498.434 5.51859 0.455431 0.0372627 0.367841 0.809868 
36 1 257.114 495.362 7.56033 0.552001 0.412449 0.711043 0.139995 
50 1 -246.407 -497.771 247.122 0.430278 0.553215 0.373016 0.608007 
51 1 -8.22281 -492.649 241.662 0.52019 0.245274 0.0109611 0.818 
52 1 242.044 -497.501 257.195 0.599346 -0.0396786 0.108061 0.792169 
49 1 494.311 -491.433 242.291 0.394048 0.63072 0.105718 0.660108 
54 1 -252.922 -256.783 247.414 0.844316 0.384086 0.276213 0.251624 
55 1 1.6235 -249.26 258.465 0.381974 0.30248 0.668249 0.56218 
53 1 494.799 -250.886 252.04 0.401763 0.731542 0.544409 0.0839809 
2 1 -250.798 -490.441 492.44 0.652014 0.629534 0.420287 -0.0438531 
1 1 495.709 -495.726 499.616 0.354474 0.249188 0.47269 0.767345 
6 1 -254.474 -248.099 494.449 0.23251 0.305471 0.920698 0.0702909 
7 1 14.7158 -249.624 491.625 0.595315 0.0700532 0.476857 0.642884 
8 1 248.533 -251.013 494.752 0.784526 0.0372332 0.618962 -0.00443076 
5 1 -499.444 -249.619 490.183 0.313729 0.64481 0.521012 0.462969 
10 1 -257.238 0.058137 496.853 0.253031 0.612328 0.246374 0.70734 
11 1 -1.85782 0.0468395 495.298 0.528598 0.563124 0.0670737 0.631647 
12 1 251.3 1.70553 494.656 0.0475223 0.212868 0.852981 0.474185 
14 1 -247.553 249.995 499.352 0.578397 0.315323 0.707757 0.255165 
16 1 252.636 255.215 493.506 0.692062 0.136173 0.67302 0.222602 
13 1 495.871 266.465 499.895 0.728139 0.0615683 0.264721 0.629242 
ITEM: TIMESTEP
40000
ITEM: NUMBER OF ATOMS
55
ITEM: BOX BOUNDS pp pp pp
-5.0000000000000000e+02 5.0000000000000000e+02
-5.0000000000000000e+02 5.0000000000000000e+02
-5.0000000000000000e+02 5.0000000000000000e+02
ITEM: ATOMS id type x y z c_q[1] c_q[2] c_q[3] c_q[4] 
4 1 257.17 -499.114 -488.373 0.184787 0.418085 0.254315 0.852281 
6 1 -257.696 -249.946 499.273 0.263477 0.294835 0.914325 0.0875316 
9 1 498.705 3.09017 -489.882 0.0843278 0.386289 0.717868 0.573005 
15 1 2.65665 251.945 -495.019 0.215359 0.540582 0.749214 0.316338 
13 1 494.419 267.477 -496.914 0.721747 0.0507474 0.2393 0.647489 
3 1 7.47265 497.695 -495.073 0.520937 0.733951 -0.0129505 0.435629 
19 1 -8.18333 -494.367 -249.5 0.0825589 0.882487 0.375366 0.27111 
20 1 251.723 -499.067 -246.816 0.670606 0.305766 0.574208 0.356483 
17 1 495.556 -495.167 -246.434 0.341521 0.263442 0.845518 0.314741 
21 1 -498.348 -258.799 -254.703 0.823808 0.12913 0.4332 0.342058 
22 1 -255.123 -258.89 -244.919 0.465435 0.323502 0.766492 0.302004 
23 1 -7.67848 -254.834 -243.032 0.231164 0.418576 0.49868 0.722963 
24 1 233.87 -249.201 -261.608 0.117775 0.969418 0.148526 0.155876 
26 1 -247.568 -8.73824 -258.356 0.524822 0.480641 0.0856745 0.697285 
28 1 251.562 -1.4207 -260.707 0.453683 0.504017 0.398787 0.617339 
25 1 493.289 -0.460633 -247.687 0.606838 0.0592257 0.748048 0.262038 
27 1 4.74737 1.84208 -247.137 0.589575 0.325288 0.329002 0.662078 
30 1 -245.573 246.525 -250.487 0.597237 0.679403 0.121712 0.40854 
31 1 10.9298 242.852 -249.741 0.669746 0.615597 0.202246 0.362734 
32 1 254.012 251.45 -253.34 0.91727 0.0437811 0.257948 0.300269 
29 1 492.474 253.659 -247.211 0.371237 0.314728 0.370101 0.791299 
18 1 -239.265 494.883 -244.648 0.213293 0.536466 0.428762 0.69489 
38 1 -246.133 -250.497 -1.85233 0.220643 0.756666 0.184546 0.587125 
43 1 -7.3071 -7.87973 -6.1783 0.416629 0.14424 0.559749 0.701638 
42 1 -246.634 10.1106 -5.15069 0.382656 0.40345 0.639016 0.531471 
47 1 -9.12381 249.682 -2.80976 0.39328 0.710235 0.279136 0.512815 
34 1 -252.618 -497.931 2.2034 0.830189 0.0475696 0.47363 0.29017 
35 1 3.98061 -497.941 9.7804 0.455992 0.0391262 0.383908 0.801969 
33 1 494.29 -496.015 4.82488 0.66086 0.492046 0.0982569 0.558122 
39 1 -2.73282 -256.013 9.92529 0.595414 0.102227 0.162815 0.780079 
40 1 261.966 -254.662 2.36016 0.467685 0.503607 0.585474 0.429966 
37 1 497.935 -251.812 7.70686 0.183969 0.0709745 0.980195 0.0182972 
41 1 497.451 -6.75346 1.57475 0.127502 0.521608 0.698622 0.472859 
44 1 249.773 1.83122 6.67699 0.791611 0.1256 0.586819 0.114981 
46 1 -259.99 238.471 3.02085 0.4454 0.314472 0.654687 0.523557 
48 1 246.048 238.171 2.52168 0.416691 0.345421 0.577468 0.611215 
45 1 499.134 266.829 1.72232 0.624465 0.119435 0.421391 0.646691 
36 1 257.704 491.264 10.2545 0.520021 0.411944 0.735322 0.138503 
50 1 -247.367 -492.685 248.213 0.446386 0.546362 0.341345 0.621057 
51 1 -14.0975 -489.667 240.052 0.526848 0.265195 0.0292684 0.806998 
49 1 496.961 -492.615 240.879 0.370923 0.635126 0.153924 0.659802 
54 1 -254.885 -259.474 248.002 0.833163 0.405097 0.27937 0.252365 
55 1 -1.79464 -249.985 261.184 0.373508 0.265296 0.680823 0.571481 
53 1 489.403 -245.68 256.714 0.443326 0.707594 0.542238 0.0935477 
52 1 241.179 493.343 252.645 0.591408 -0.0400814 0.0819343 0.801197 
1 1 -499.169 -494.059 498.802 0.364428 0.2472 0.49534 0.748814 
2 1 -249.352 -485.189 496.333 0.669073 0.627011 0.396246 -0.0467743 
5 1 -499.674 -248.216 487.613 0.301126 0.645146 0.5216 0.470152 
7 1 6.11673 -249.49 488.359 0.617317 0.0384235 0.46036 0.636798 
8 1 252.276 -248.407 493.489 0.770982 0.0452982 0.635114 -0.0128533 
12 1 256.77 -1.63905 494.429 0.0300033 0.173001 0.861081 0.477189 
10 1 -254.021 1.42347 496.337 0.30175 0.606479 0.254711 0.690111 
11 1 0.927518 -0.359269 493.768 0.50319 0.558171 0.115328 0.649573 
14 1 -242.667 244.47 499.676 0.579718 0.326599 0.705664 0.243512 
16 1 251.138 254.106 494.995 0.678537 0.116116 0.69952 0.191774 
ITEM: TIMESTEP
50000
ITEM: NUMBER OF ATOMS
55
ITEM: BOX BOUNDS pp pp pp
-5.0000000000000000e+02 5.0000000000000000e+02
-5.0000000000000000e+02 5.0000000000000000e+02
-5.0000000000000000e+02 5.0000000000000000e+02
ITEM: ATOMS id type x y z c_q[1] c_q[2] c_q[3] c_q[4] 
2 1 -246.344 -485.635 -497.113 0.692483 0.617878 0.365863 -0.0695612 
3 1 4.53352 -495.817 -496.811 0.497292 0.746851 0.00115426 0.44149 
4 1 254.044 -497.574 -488.599 0.228141 0.40672 0.255069 0.847036 
9 1 497.42 -1.82184 -491.682 0.0813251 0.338572 0.688189 0.636515 
15 1 4.90936 251.563 -494.152 0.20796 0.537511 0.771999 0.268051 
19 1 -2.09731 -496.068 -250.367 0.0949008 0.892332 0.353282 0.264442 
17 1 492.203 -496.46 -245.257 0.339783 0.254227 0.853216 0.303213 
22 1 -258.194 -262.551 -245.015 0.461289 0.32767 0.769444 0.296313 
23 1 -7.18776 -253.488 -243.336 0.196123 0.388202 0.496255 0.751376 
24 1 227.345 -250.439 -263.711 0.117824 0.977801 0.141044 0.100646 
21 1 498.234 -259.652 -260.113 0.827566 0.144555 0.434679 0.324488 
26 1 -247.7 -7.35272 -265.529 0.494081 0.49793 0.130087 0.700733 
28 1 252.397 0.514988 -254.298 0.438892 0.479175 0.441516 0.618732 
25 1 490.522 0.0819084 -244.389 0.582678 0.06461 0.776576 0.23074 
27 1 2.25381 6.59918 -242.782 0.566305 0.359995 0.346688 0.65537 
30 1 -251.166 250.504 -243.008 0.577986 0.700285 0.171041 0.382462 
31 1 12.0935 240.583 -249.015 0.666647 0.597472 0.226496 0.383807 
32 1 255.655 252.801 -255.039 0.939867 0.0339821 0.168511 0.295124 
29 1 486.312 256.318 -246.531 0.379472 0.298874 0.382708 0.787534 
18 1 -239.042 491.165 -244.698 0.163018 0.546164 0.478721 0.667799 
20 1 257.553 497.191 -253.631 0.677816 0.30186 0.562321 0.365022 
40 1 262.643 -253.031 0.363789 0.455692 0.51229 0.586399 0.431323 
43 1 -7.60225 -4.8393 -2.85107 0.431124 0.135442 0.556805 0.696962 
42 1 -253.65 14.3826 -6.38062 0.428988 0.414103 0.61857 0.511723 
45 1 -498.341 271.024 -0.0442207 0.62915 0.125808 0.404673 0.6516 
47 1 -14.5101 251.71 -0.35748 0.346687 0.721026 0.299907 0.519602 
48 1 246.875 235.382 -0.939808 0.390048 0.352546 0.619611 0.582801 
34 1 -257.121 -498.715 1.9721 0.834045 0.0727184 0.468128 0.282731 
35 1 9.09693 -497.269 14.0133 0.394544 0.0691059 0.409763 0.819545 
33 1 490.319 -496.338 9.0426 0.665877 0.551482 0.1029 0.49182 
38 1 -246.929 -246.901 2.0486 0.246476 0.728423 0.230908 0.596096 
39 1 3.51109 -250.733 11.5281 0.595277 0.10516 0.181253 0.775715 
37 1 499.326 -252.836 7.96879 0.195151 0.102635 0.975313 0.0121486 
44 1 244.43 -0.818206 2.74458 0.783972 0.115633 0.590911 0.151136 
41 1 495.374 -3.37674 1.3006 0.116579 0.501938 0.733652 0.44297 
46 1 -260.505 242.534 4.23763 0.454996 0.297738 0.650012 0.530863 
36 1 251.693 495.093 7.49971 0.469667 0.454007 0.753709 0.0722019 
50 1 -249.518 -495.662 247.776 0.448557 0.513574 0.378577 0.625873 
51 1 -15.1714 -492.728 238.835 0.595542 0.241411 0.0264032 0.765737 
49 1 498.403 -491.776 239.368 0.363596 0.63965 0.139747 0.662658 
54 1 -255.111 -255.073 249.733 0.829709 0.419234 0.288325 0.229554 
55 1 -0.122523 -250.54 257.259 0.375446 0.250471 0.688668 0.567486 
53 1 489.133 -244.616 256.847 0.416723 0.725783 0.53694 0.106189 
52 1 240.684 493.258 252.308 0.582103 0.0396012 0.0418335 0.811072 
1 1 -494.564 -493.775 498.29 0.376936 0.27904 0.461536 0.753021 
5 1 -499.421 -247.629 485.157 0.232307 0.60346 0.558959 0.519071 
6 1 -255.353 -254.991 496.306 0.261307 0.317199 0.908756 0.0725708 
7 1 3.72167 -248.36 485.897 0.637853 -0.0130281 0.434871 0.635501 
8 1 248.072 -247.951 493.784 0.790456 0.0564558 0.609601 -0.019463 
10 1 -253.09 -4.04298 494.749 0.335717 0.604036 0.245453 0.679844 
12 1 255.678 -6.26341 492.467 0.0832582 0.157525 0.860455 0.477359 
11 1 -0.813096 2.02423 494.258 0.515839 0.549272 0.115351 0.647229 
14 1 -248.066 242.937 495.357 0.572153 0.326323 0.723794 0.205612 
16 1 255.463 248.89 498.991 0.706307 0.0855828 0.661043 0.238387 
13 1 498.239 268.676 499.07 0.711963 0.0163947 0.207264 0.670732 
ITEM: TIMESTEP
60000
ITEM: NUMBER OF ATOMS
55
ITEM: BOX BOUNDS pp pp pp
-5.0000000000000000e+02 5.0000000000000000e+02
-5.0000000000000000e+02 5.0000000000000000e+02
-5.0000000000000000e+02 5.0000000000000000e+02
ITEM: ATOMS id type x y z c_q[1] c_q[2] c_q[3] c_q[4] 
2 1 -244.494 -483.971 -494.166 0.701401 0.617313 0.349933 -0.0671438 
3 1 7.83737 -494.536 -498.724 0.490484 0.728909 0.00411187 0.477598 
4 1 257.096 -496.228 -491.637 0.262986 0.394154 0.244098 0.846107 
9 1 491.724 2.33838 -492.24 0.0335842 0.322327 0.657159 0.680529 
15 1 -2.16331 250.408 -499.994 0.224366 0.560681 0.742285 0.290362 
13 1 -499.595 260.726 -500.065 0.716483 0.0490909 0.21172 0.662885 
20 1 259.187 -499.92 -253.36 0.660861 0.319778 0.568672 0.370968 
17 1 491.897 -497.814 -249.731 0.296956 0.268806 0.861252 0.312737 
22 1 -259.241 -260.238 -242.651 0.481313 0.315396 0.759144 0.304242 
23 1 -8.05051 -249.459 -244.072 0.176639 0.370227 0.485495 0.772026 
24 1 228.038 -248.807 -269.948 0.130224 0.97683 0.121836 0.118322 
21 1 498.409 -257.858 -261.331 0.800382 0.109102 0.458202 0.370859 
26 1 -250.221 -9.54446 -264.728 0.456692 0.509159 0.125562 0.718626 
27 1 1.66525 3.50209 -242.593 0.540595 0.365079 0.322997 0.685673 
28 1 251.597 -1.76513 -251.884 0.427376 0.471407 0.43925 0.63418 
25 1 490.868 0.599601 -242.178 0.570433 0.0559834 0.797756 0.187235 
30 1 -248.826 249.109 -243.667 0.550163 0.728499 0.157811 0.376439 
31 1 4.90201 243.199 -253.063 0.648206 0.595434 0.24629 0.405744 
32 1 258.551 250.946 -256.268 0.94197 0.0201616 0.1402 0.304353 
29 1 487.337 264.476 -243.99 0.388454 0.296383 0.371432 0.789493 
18 1 -242.633 487.978 -243.369 0.127566 0.538908 0.498321 0.667069 
19 1 -6.59553 -499.721 -254.175 0.0746818 0.905265 0.350367 0.22839 
41 1 498.448 -7.01561 -1.69557 0.0979005 0.497092 0.70762 0.492533 
42 1 -251.135 11.8737 -5.33041 0.421419 0.448398 0.627817 0.476645 
47 1 -16.6979 250.408 -6.7134 0.33114 0.726485 0.272663 0.536861 
48 1 247.935 242.084 -5.38235 0.406573 0.398425 0.600008 0.562091 
35 1 7.33849 -494.497 10.829 0.401705 0.0369844 0.431353 0.806969 
33 1 492.271 -495.523 5.21621 0.66725 0.553077 0.0601354 0.495245 
38 1 -247.644 -250.853 1.70647 0.301888 0.77103 0.203333 0.522525 
39 1 3.43661 -252.29 12.1419 0.597334 0.1572 0.177076 0.76624 
40 1 260.437 -258.498 0.776434 0.430313 0.540486 0.577036 0.435586 
37 1 -499.421 -255.188 3.06678 0.197937 0.147217 0.968933 0.0178236 
44 1 241.314 -0.646365 -0.607846 0.803757 0.079341 0.572926 0.139411 
43 1 -4.04472 1.56395 -0.203437 0.424895 0.143131 0.599062 0.663402 
45 1 -495.853 265.443 1.00618 0.624474 0.126224 0.372531 0.674774 
46 1 -262.71 241.868 0.951812 0.450299 0.329625 0.654621 0.50995 
34 1 -255.567 -499.735 8.27197 0.833687 0.0715463 0.455495 0.303925 
36 1 254.58 496.619 5.18162 0.417533 0.473162 0.771526 0.080819 
50 1 -251.392 -489.812 252.777 0.426557 0.551594 0.401836 0.593566 
51 1 -15.6908 -490.19 239.338 0.573185 0.274767 0.012972 0.771877 
49 1 495.79 -490.956 232.558 0.427047 0.606262 0.120786 0.659915 
54 1 -260.522 -250.731 247.455 0.830066 0.415718 0.31901 0.190793 
55 1 -1.76172 -249.227 261.914 0.389096 0.254672 0.645184 0.606205 
53 1 490.619 -248.649 263.588 0.438205 0.717365 0.528587 0.118153 
52 1 238.563 487.256 255.526 0.581965 0.0672666 0.029891 0.809875 
1 1 -492.953 -489.259 495.848 0.403745 0.309335 0.46242 0.726271 
5 1 -498.869 -245.93 483.498 0.23236 0.607364 0.55059 0.523421 
6 1 -253.54 -259.741 497.02 0.273546 0.303841 0.911453 0.0458914 
7 1 3.37683 -253.529 479.417 0.633055 -0.0160936 0.40112 0.66188 
8 1 249.13 -255.691 492.356 0.792677 0.0625921 0.606414 -0.00268855 
10 1 -252.227 -10.3387 494.202 0.307198 0.551773 0.2702 0.726751 
12 1 254.2 -5.06992 492.364 -0.0169921 0.150054 0.862429 0.483126 
11 1 -3.47011 0.988969 490.404 0.498517 0.589246 0.122605 0.623889 
14 1 -242.354 242.656 498.148 0.569759 0.352706 0.712781 0.207161 
16 1 255.085 254.64 494.347 0.6969 0.0857239 0.682164 0.204047 
ITEM: TIMESTEP
70000
ITEM: NUMBER OF ATOMS
55
ITEM: BOX BOUNDS pp pp pp
-5.0000000000000000e+02 5.0000000000000000e+02
-5.0000000000000000e+02 5.0000000000000000e+02
-5.0000000000000000e+02 5.0000000000000000e+02
ITEM: ATOMS id type x y z c_q[1] c_q[2] c_q[3] c_q[4] 
2 1 -244.995 -486.851 -492.197 0.711456 0.61008 0.346085 -0.0431168 
4 1 258.444 -494.742 -493.02 0.24502 0.361784 0.221442 0.871803 
9 1 485.54 5.21419 -494.171 0.0234025 0.350331 0.648471 0.67543 
15 1 -4.86034 253.292 499.64 0.232165 0.575877 0.747429 0.236253 
19 1 -6.3482 -496 -252.485 0.0596862 0.90441 0.347278 0.24058 
17 1 492.29 -498.762 -251.109 0.312647 0.293032 0.857726 0.284061 
21 1 -498.515 -258.251 -262.781 0.796252 0.129666 0.483876 0.339166 
22 1 -265.557 -259.452 -245.547 0.475219 0.288488 0.776393 0.29691 
23 1 -5.32709 -252.075 -244.866 0.100392 0.363984 0.490294 0.785525 
24 1 223.661 -251.271 -274.411 0.116628 0.983798 0.0768229 0.11242 
26 1 -249.985 -5.94526 -264.041 0.453573 0.504529 0.102238 0.727509 
28 1 254.697 -2.1143 -247.909 0.45748 0.373348 0.480826 0.648174 
27 1 5.27375 2.2263 -247.338 0.567761 0.340796 0.305742 0.684125 
25 1 492.348 5.53438 -241.962 0.566107 0.00644941 0.794444 0.219863 
30 1 -248.879 249.16 -244.968 0.517037 0.755069 0.180018 0.360744 
31 1 6.14515 242.305 -251.443 0.681844 0.582817 0.174944 0.405965 
32 1 259.671 252.151 -250.799 0.936314 0.00556542 0.13697 0.323303 
29 1 482.596 266.105 -237.743 0.376123 0.287465 0.350302 0.808198 
18 1 -245.789 483.027 -244.801 0.140813 0.522713 0.502924 0.673803 
20 1 263.059 497.514 -253.636 0.634737 0.338321 0.584914 0.374865 
41 1 497.098 -5.93613 -4.94099 0.0882609 0.517482 0.72455 0.446598 
42 1 -250.647 18.2673 -7.00262 0.423834 0.483046 0.627706 0.439336 
46 1 -263.325 239.367 0.136078 0.476931 0.31579 0.636928 0.516852 
47 1 -14.9337 252.253 -8.20769 0.344206 0.738318 0.278292 0.508883 
48 1 246.495 241.336 -4.75237 0.316666 0.400921 0.623436 0.591872 
45 1 500.071 263.836 -2.34627 0.633153 0.138178 0.349296 0.676769 
34 1 -257.752 -493.964 8.96491 0.803942 0.070889 0.487821 0.33269 
35 1 9.36659 -495.683 13.626 0.408683 0.00712063 0.409208 0.815767 
33 1 490.11 -496.294 2.69456 0.694753 0.534629 0.0411806 0.479369 
37 1 -499.419 -255.958 6.18629 0.210074 0.138372 0.967713 -0.0159498 
38 1 -243.763 -254.098 3.79559 0.331028 0.768084 0.189763 0.514254 
39 1 4.95683 -251.915 11.1241 0.583228 0.164878 0.22205 0.763777 
40 1 257.862 -255.743 3.35824 0.435614 0.504354 0.593662 0.451036 
43 1 -6.50916 -3.2858 4.26257 0.433039 0.201051 0.612615 0.629887 
44 1 242.507 2.74351 1.27834 0.778822 0.0555541 0.59164 0.200778 
36 1 253.522 498.688 8.26121 0.385734 0.452122 0.801792 0.062646 
50 1 -253.648 -496.464 257.154 0.436102 0.543282 0.417225 0.583595 
51 1 -11.1358 -481.653 245.739 0.585727 0.274449 -0.0058077 0.762606 
49 1 496.123 -488.92 230.797 0.412867 0.625063 0.128204 0.649923 
54 1 -263.609 -252.312 244.059 0.83491 0.424687 0.306764 0.168707 