ITEM: TIMESTEP
0
ITEM: NUMBER OF ATOMS
65
ITEM: BOX BOUNDS
-500.000000 500.000000
-500.000000 500.000000
-500.000000 500.000000
ITEM: ATOMS id type x y z c_q[1] c_q[2] c_q[3] c_q[4]
1 1 -500.000000 -500.000000 -500.000000 0.424880 0.641222 0.568591 0.291576
2 1 -300.000000 -500.000000 -500.000000 0.315468 0.371363 0.293635 0.822404
3 1 -100.000000 -500.000000 -500.000000 0.453247 0.696895 0.451496 0.324123
4 1 100.000000 -500.000000 -500.000000 0.220530 0.668412 0.643428 0.300985
5 1 300.000000 -500.000000 -500.000000 0.236525 0.348108 0.900803 0.106916
6 1 -500.000000 -300.000000 -500.000000 0.162731 0.615595 0.497863 0.588807
7 1 -300.000000 -300.000000 -500.000000 0.769966 0.097861 0.447015 0.444694
8 1 -100.000000 -300.000000 -500.000000 0.620295 0.480399 0.509821 0.352892
9 1 100.000000 -300.000000 -500.000000 0.181940 0.353446 0.850764 0.343765
10 1 300.000000 -300.000000 -500.000000 0.151359 0.339329 0.924627 0.083731
11 1 -500.000000 -100.000000 -500.000000 0.880344 0.410027 0.157901 0.178719
12 1 -300.000000 -100.000000 -500.000000 0.358302 0.664261 0.339513 0.561344
13 1 -100.000000 -100.000000 -500.000000 0.067784 0.265287 0.824981 0.494404
14 1 100.000000 -100.000000 -500.000000 0.243652 0.851104 0.175848 0.430503
15 1 300.000000 -100.000000 -500.000000 0.503067 0.797017 0.049090 0.330573
16 1 -500.000000 100.000000 -500.000000 0.897292 0.144902 0.354391 0.219720
17 1 -300.000000 100.000000 -500.000000 0.481596 0.334949 0.255495 0.768503
18 1 -100.000000 100.000000 -500.000000 0.760267 0.038491 0.509393 0.401286
19 1 100.000000 100.000000 -500.000000 0.477103 0.476876 0.712656 0.192570
20 1 300.000000 100.000000 -500.000000 0.492064 0.343032 0.790381 0.124500
21 1 -500.000000 300.000000 -500.000000 0.452131 0.286746 0.635951 0.555806
22 1 -300.000000 300.000000 -500.000000 0.484639 0.549070 0.679114 0.049509
23 1 -100.000000 300.000000 -500.000000 0.274779 0.789886 0.082184 0.542054
24 1 100.000000 300.000000 -500.000000 0.693041 0.365467 0.052187 0.619197
25 1 300.000000 300.000000 -500.000000 0.507663 0.697456 0.457294 0.216137
26 1 -500.000000 -500.000000 -300.000000 0.284869 0.394377 0.810030 0.327366
27 1 -300.000000 -500.000000 -300.000000 0.660669 0.380203 0.284368 0.581461
28 1 -100.000000 -500.000000 -300.000000 0.720091 0.686753 0.075969 0.063777
29 1 100.000000 -500.000000 -300.000000 0.163305 0.430887 0.424015 0.779666
30 1 300.000000 -500.000000 -300.000000 0.498454 0.646416 0.577659 0.000720
31 1 -500.000000 -300.000000 -300.000000 0.255885 0.161245 0.514090 0.802642
32 1 -300.000000 -300.000000 -300.000000 0.270276 0.621858 0.625614 0.385811
33 1 -100.000000 -300.000000 -300.000000 0.400932 0.301608 0.560393 0.658974
34 1 100.000000 -300.000000 -300.000000 0.343848 0.552692 0.503319 0.568305
35 1 300.000000 -300.000000 -300.000000 0.564835 0.172682 0.495166 0.637145
36 1 -500.000000 -100.000000 -300.000000 0.384721 0.322488 0.620084 0.602899
37 1 -300.000000 -100.000000 -300.000000 0.678499 0.616955 0.344859 0.200191
38 1 -100.000000 -100.000000 -300.000000 0.981064 0.141647 0.004456 0.132019
39 1 100.000000 -100.000000 -300.000000 0.199839 0.306201 0.922837 0.121148
40 1 300.000000 -100.000000 -300.000000 0.756022 0.432995 0.330789 0.362663
41 1 -500.000000 100.000000 -300.000000 0.745808 0.531957 0.072365 0.394406
42 1 -300.000000 100.000000 -300.000000 0.383198 0.460129 0.568871 0.563762
43 1 -100.000000 100.000000 -300.000000 0.291378 0.393359 0.094063 0.866903
44 1 100.000000 100.000000 -300.000000 0.605027 0.495579 0.502294 0.368842
45 1 300.000000 100.000000 -300.000000 0.408570 0.674457 0.186916 0.585867
46 1 -500.000000 300.000000 -300.000000 0.626341 0.185717 0.524433 0.546055
47 1 -300.000000 300.000000 -300.000000 0.092515 0.499537 0.835170 0.210701
48 1 -100.000000 300.000000 -300.000000 0.519445 0.731109 0.388244 0.211949
49 1 100.000000 300.000000 -300.000000 0.477273 0.387754 0.771775 0.161928
50 1 300.000000 300.000000 -300.000000 0.348951 0.309506 0.556513 0.687556
51 1 -500.000000 -500.000000 -100.000000 0.682823 0.708020 0.157105 0.088194
52 1 -300.000000 -500.000000 -100.000000 0.466749 0.692966 0.542906 0.084836
53 1 -100.000000 -500.000000 -100.000000 0.666404 0.434616 0.089211 0.599213
54 1 100.000000 -500.000000 -100.000000 0.386630 0.144547 0.299286 0.860263
55 1 300.000000 -500.000000 -100.000000 0.838098 0.508507 0.080074 0.180556
56 1 -500.000000 -300.000000 -100.000000 0.301020 0.704522 0.362382 0.530769
57 1 -300.000000 -300.000000 -100.000000 0.224583 0.659459 0.715712 0.049322
58 1 -100.000000 -300.000000 -100.000000 0.128794 0.103343 0.601505 0.781617
59 1 100.000000 -300.000000 -100.000000 0.424109 0.329465 0.666602 0.516940
60 1 300.000000 -300.000000 -100.000000 0.733948 0.604706 0.300424 0.073463
61 1 -500.000000 -100.000000 -100.000000 0.308923 0.042477 0.615661 0.723687
62 1 -300.000000 -100.000000 -100.000000 0.709935 0.099927 0.328994 0.614630
63 1 -100.000000 -100.000000 -100.000000 0.200942 0.377714 0.815283 0.390216
64 1 100.000000 -100.000000 -100.000000 0.796072 0.366320 0.117939 0.467086
65 1 300.000000 -100.000000 -100.000000 0.032734 0.757234 0.254970 0.600429
