ITEM: TIMESTEP
0
ITEM: NUMBER OF ATOMS
40
ITEM: BOX BOUNDS
-500.000000 500.000000
-500.000000 500.000000
-500.000000 500.000000
ITEM: ATOMS id type x y z c_q[1] c_q[2] c_q[3] c_q[4]
1 1 -500.000000 -500.000000 -500.000000 0.467914 0.342856 0.439047 0.686107
2 1 -250.000000 -500.000000 -500.000000 0.786323 0.269073 0.284436 0.477903
3 1 0.000000 -500.000000 -500.000000 0.346508 0.338639 0.253706 0.837191
4 1 250.000000 -500.000000 -500.000000 0.587823 0.521764 0.326428 0.525044
5 1 -500.000000 -250.000000 -500.000000 0.393351 0.563764 0.069056 0.722964
6 1 -250.000000 -250.000000 -500.000000 0.352262 0.523633 0.329515 0.702239
7 1 0.000000 -250.000000 -500.000000 0.469972 0.378579 0.641650 0.473382
8 1 250.000000 -250.000000 -500.000000 0.708603 0.548434 0.384602 0.221772
9 1 -500.000000 0.000000 -500.000000 0.574057 0.346487 0.277100 0.688201
10 1 -250.000000 0.000000 -500.000000 0.658807 0.230057 0.111802 0.707494
11 1 0.000000 0.000000 -500.000000 0.011931 0.433361 0.238190 0.869093
12 1 250.000000 0.000000 -500.000000 0.799499 0.258315 0.380561 0.386325
13 1 -500.000000 250.000000 -500.000000 0.562440 0.467994 0.023791 0.681232
14 1 -250.000000 250.000000 -500.000000 0.910322 0.060310 0.159865 0.376987
15 1 0.000000 250.000000 -500.000000 0.593919 0.571435 0.465942 0.321901
16 1 250.000000 250.000000 -500.000000 0.442678 0.119450 0.331901 0.824385
17 1 -500.000000 -500.000000 -250.000000 0.539138 0.611895 0.495961 0.298223
18 1 -250.000000 -500.000000 -250.000000 0.491698 0.327276 0.744935 0.310154
19 1 0.000000 -500.000000 -250.000000 0.215354 0.594880 0.674150 0.381133
20 1 250.000000 -500.000000 -250.000000 0.233432 0.516030 0.250181 0.785259
21 1 -500.000000 -250.000000 -250.000000 0.242259 0.610502 0.531818 0.534573
22 1 -250.000000 -250.000000 -250.000000 0.684598 0.362586 0.323442 0.543362
23 1 0.000000 -250.000000 -250.000000 0.153427 0.924171 0.336746 0.094712
24 1 250.000000 -250.000000 -250.000000 0.496799 0.611759 0.565330 0.243604
25 1 -500.000000 0.000000 -250.000000 0.260784 0.574179 0.326838 0.703908
26 1 -250.000000 0.000000 -250.000000 0.331969 0.590388 0.108438 0.727653
27 1 0.000000 0.000000 -250.000000 0.448528 0.094548 0.212885 0.862881
28 1 250.000000 0.000000 -250.000000 0.560780 0.598413 0.322488 0.472683
29 1 -500.000000 250.000000 -250.000000 0.069428 0.725880 0.196403 0.655518
30 1 -250.000000 250.000000 -250.000000 0.747225 0.233697 0.559040 0.272973
31 1 0.000000 250.000000 -250.000000 0.498447 0.040540 0.701426 0.507847
32 1 250.000000 250.000000 -250.000000 0.297505 0.466786 0.667824 0.497607
33 1 -500.000000 -500.000000 0.000000 0.770113 0.316974 0.543492 0.105216
34 1 -250.000000 -500.000000 0.000000 0.347748 0.536063 0.761618 0.107914
35 1 0.000000 -500.000000 0.000000 0.616433 0.632116 0.157731 0.442222
36 1 250.000000 -500.000000 0.000000 0.254132 0.001018 0.565310 0.784755
37 1 -500.000000 -250.000000 0.000000 0.815445 0.251324 0.505090 0.129496
38 1 -250.000000 -250.000000 0.000000 0.193482 0.337772 0.544554 0.742924
39 1 0.000000 -250.000000 0.000000 0.785488 0.013327 0.617266 0.042586
40 1 250.000000 -250.000000 0.000000 0.301007 0.546235 0.477494 0.618887
