ITEM: TIMESTEP
0
ITEM: NUMBER OF ATOMS
30
ITEM: BOX BOUNDS
-500.000000 500.000000
-500.000000 500.000000
-500.000000 500.000000
ITEM: ATOMS id type x y z c_q[1] c_q[2] c_q[3] c_q[4]
1 1 -500.000000 -500.000000 -500.000000 0.468264 0.873419 0.098726 0.090121
2 1 -250.000000 -500.000000 -500.000000 0.703578 0.219868 0.616121 0.277544
3 1 0.000000 -500.000000 -500.000000 0.615064 0.079340 0.416559 0.664741
4 1 250.000000 -500.000000 -500.000000 0.652544 0.231933 0.635359 0.341632
5 1 -500.000000 -250.000000 -500.000000 0.029509 0.135591 0.708658 0.691772
6 1 -250.000000 -250.000000 -500.000000 0.349728 0.606204 0.585963 0.408478
7 1 0.000000 -250.000000 -500.000000 0.330158 0.259959 0.886158 0.195296
8 1 250.000000 -250.000000 -500.000000 0.220345 0.701751 0.015035 0.677324
9 1 -500.000000 0.000000 -500.000000 0.125077 0.667015 0.725616 0.113702
10 1 -250.000000 0.000000 -500.000000 0.571176 0.666269 0.476696 0.051042
11 1 0.000000 0.000000 -500.000000 0.637572 0.197044 0.568028 0.481684
12 1 250.000000 0.000000 -500.000000 0.427713 0.231301 0.736832 0.469723
13 1 -500.000000 250.000000 -500.000000 0.510593 0.851985 0.103741 0.051521
14 1 -250.000000 250.000000 -500.000000 0.426663 0.567431 0.520440 0.474470
15 1 0.000000 250.000000 -500.000000 0.800271 0.090988 0.537010 0.250814
16 1 250.000000 250.000000 -500.000000 0.372962 0.304262 0.749076 0.455203
17 1 -500.000000 -500.000000 -250.000000 0.627547 0.099696 0.217602 0.740875
18 1 -250.000000 -500.000000 -250.000000 0.378148 0.632740 0.281983 0.614109
19 1 0.000000 -500.000000 -250.000000 0.442542 0.456987 0.631160 0.443798
20 1 250.000000 -500.000000 -250.000000 0.212726 0.835303 0.506212 0.027665
21 1 -500.000000 -250.000000 -250.000000 0.844957 0.198371 0.388505 0.309453
22 1 -250.000000 -250.000000 -250.000000 0.245281 0.544917 0.254038 0.760505
23 1 0.000000 -250.000000 -250.000000 0.792362 0.040420 0.571723 0.208953
24 1 250.000000 -250.000000 -250.000000 0.599405 0.481532 0.638780 0.028282
25 1 -500.000000 0.000000 -250.000000 0.521190 0.234777 0.481558 0.664336
26 1 -250.000000 0.000000 -250.000000 0.529743 0.133918 0.310343 0.777898
27 1 0.000000 0.000000 -250.000000 0.380388 0.675287 0.022142 0.631508
28 1 250.000000 0.000000 -250.000000 0.561297 0.097198 0.644133 0.510482
29 1 -500.000000 250.000000 -250.000000 0.390857 0.141211 0.896048 0.156170
30 1 -250.000000 250.000000 -250.000000 0.690191 0.554554 0.457802 0.080762
