ITEM: TIMESTEP
0
ITEM: NUMBER OF ATOMS
45
ITEM: BOX BOUNDS pp pp pp
-5.0000000000000000e+02 5.0000000000000000e+02
-5.0000000000000000e+02 5.0000000000000000e+02
-5.0000000000000000e+02 5.0000000000000000e+02
ITEM: ATOMS id type x y z c_q[1] c_q[2] c_q[3] c_q[4] 
1 1 -500 -500 -500 0.466761 0.641808 0.440519 0.419713 
2 1 -250 -500 -500 0.537262 0.694782 0.167937 0.447689 
3 1 0 -500 -500 0.592695 0.743333 0.152338 0.270114 
4 1 250 -500 -500 0.071953 0.486495 0.815129 0.306121 
5 1 -500 -250 -500 0.111744 0.311007 0.693286 0.640423 
6 1 -250 -250 -500 0.0735 0.340139 0.701497 0.621937 
7 1 0 -250 -500 0.495745 0.758019 0.382996 0.181541 
8 1 250 -250 -500 0.426518 0.609373 0.64394 0.179132 
9 1 -500 0 -500 0.432082 0.198389 0.842581 0.25299 
10 1 -250 0 -500 0.93117 0.241967 0.019235 0.272037 
11 1 0 0 -500 0.721372 0.660375 0.05773 0.200486 
12 1 250 0 -500 0.393748 0.634422 0.077438 0.660662 
13 1 -500 250 -500 0.017799 0.860878 0.353751 0.365285 
14 1 -250 250 -500 0.703706 0.530195 0.304878 0.36158 
15 1 0 250 -500 0.673076 0.430626 0.328152 0.503831 
16 1 250 250 -500 0.098149 0.32546 0.337274 0.877889 
17 1 -500 -500 -250 0.340347 0.452659 0.589045 0.576445 
18 1 -250 -500 -250 0.116033 0.433339 0.601662 0.660876 
19 1 0 -500 -250 0.250444 0.669923 0.659865 0.230345 
20 1 250 -500 -250 0.610154 0.767102 0.143775 0.136363 
21 1 -500 -250 -250 0.110303 0.393984 0.618269 0.671084 
22 1 -250 -250 -250 0.800304 0.074108 0.088376 0.588398 
23 1 0 -250 -250 0.682946 0.210279 0.689768 0.116566 
24 1 250 -250 -250 0.800171 0.074145 0.517182 0.294536 
25 1 -500 0 -250 0.520054 0.264954 0.704233 0.404227 
26 1 -250 0 -250 0.335181 0.48824 0.479926 0.647261 
27 1 0 0 -250 0.033534 0.961035 0.260468 0.086273 
28 1 250 0 -250 0.092854 0.358885 0.627811 0.684422 
29 1 -500 250 -250 0.546172 0.197174 0.53884 0.610303 
30 1 -250 250 -250 0.702429 0.67078 0.09459 0.218404 
31 1 0 250 -250 0.538041 0.64778 0.230296 0.487706 
32 1 250 250 -250 0.528337 0.101497 0.503898 0.675755 
33 1 -500 -500 0 0.281702 0.556932 0.69119 0.364317 
34 1 -250 -500 0 0.493317 0.030653 0.561818 0.66337 
35 1 0 -500 0 0.63492 0.29376 0.332992 0.632217 
36 1 250 -500 0 0.581927 0.453554 0.070303 0.671347 
37 1 -500 -250 0 0.421021 0.386209 0.108992 0.813452 
38 1 -250 -250 0 0.224515 0.497084 0.508178 0.666525 
39 1 0 -250 0 0.383683 0.627548 0.617478 0.278732 
40 1 250 -250 0 0.436521 0.343333 0.148183 0.818299 
41 1 -500 0 0 0.254078 0.901007 0.345351 0.066059 
42 1 -250 0 0 0.479171 0.781581 0.298845 0.264986 
43 1 0 0 0 0.412044 0.565551 0.476564 0.532221 
44 1 250 0 0 0.211704 0.652369 0.595508 0.41829 
45 1 -500 250 0 0.139476 0.303102 0.766602 0.548632 
ITEM: TIMESTEP
10000
ITEM: NUMBER OF ATOMS
45
ITEM: BOX BOUNDS pp pp pp
-5.0000000000000000e+02 5.0000000000000000e+02
-5.0000000000000000e+02 5.0000000000000000e+02
-5.0000000000000000e+02 5.0000000000000000e+02
ITEM: ATOMS id type x y z c_q[1] c_q[2] c_q[3] c_q[4] 
1 1 -496.894 -496.152 -499.92 0.485983 0.638667 0.411598 0.43187 
3 1 0.434558 -499.073 -500.158 0.56524 0.767453 0.149702 0.262885 
5 1 -493.695 -246.547 -495.132 0.143923 0.324879 0.671292 0.650466 
6 1 -252.619 -248.337 -499.207 0.053461 0.300327 0.713656 0.630587 
8 1 246.544 -253.94 -499.984 0.423022 0.606036 0.645936 0.191153 
10 1 -249.656 0.234642 -498.129 0.923714 0.273566 0.0622534 0.260843 
11 1 5.44178 2.92852 -492.646 0.745847 0.628671 0.0430385 0.215947 
12 1 244.275 2.74523 -498.699 0.384518 0.670789 0.0910819 0.627609 
16 1 251.138 252.994 -494.576 0.0875941 0.330845 0.302307 0.889651 
18 1 -252.339 -500.051 -247.105 0.11565 0.379387 0.622881 0.674322 
20 1 250.532 -496.758 -253.225 0.583181 0.796686 0.128818 0.0927248 
17 1 497.378 -497.287 -251.71 0.296264 0.426867 0.627664 0.579699 
21 1 -495.285 -245.556 -251.936 0.12647 0.363912 0.615093 0.68792 
22 1 -247.055 -247.947 -251.735 0.824887 0.107394 0.0591461 0.551842 
23 1 -2.98646 -247.436 -241.272 0.692164 0.218733 0.678102 0.11508 
24 1 246.143 -257.448 -247.888 0.799541 0.0836748 0.491583 0.334781 
25 1 -498.347 -2.63155 -249.785 0.515114 0.299106 0.696994 0.39924 
26 1 -247.555 -0.0440559 -250.291 0.314748 0.521363 0.475843 0.634577 
27 1 1.16079 -4.43758 -251.717 0.0108383 0.946492 0.299516 0.119687 
28 1 244.946 -5.01639 -251.106 0.108129 0.364009 0.589691 0.712791 
29 1 -496.253 253.863 -247.174 0.559576 0.183839 0.538603 0.602482 
30 1 -250.789 250.362 -255.877 0.69413 0.688996 0.0841363 0.190762 
31 1 0.262542 246.801 -245.484 0.530313 0.687789 0.249445 0.42836 
32 1 258.223 247.831 -251.3 0.506151 0.102892 0.540615 0.664048 
19 1 -3.37937 497.335 -245.105 0.244904 0.696863 0.623726 0.255676 
37 1 -494.217 -250.836 -1.97687 0.427795 0.396307 0.0998582 0.806202 
40 1 250.006 -255.149 -4.25982 0.44134 0.339658 0.135301 0.819479 
43 1 2.62354 1.00831 -0.690306 0.381156 0.5718 0.529957 0.496901 
44 1 246.98 1.71176 1.02125 0.208307 0.661667 0.581883 0.424521 
34 1 -246.607 494.773 -1.66221 0.519425 0.00702241 0.545194 0.657961 
35 1 1.36791 -498.05 1.45202 0.646692 0.303843 0.318284 0.623028 
38 1 -252.32 -248.689 1.91458 0.20952 0.507393 0.540581 0.637515 
39 1 -1.73733 -248.391 0.436038 0.3927 0.639851 0.611146 0.250753 
41 1 -498.911 -4.55322 0.108927 0.244952 0.904738 0.341774 0.0681108 
42 1 -256.113 -2.45959 7.51055 0.4579 0.792952 0.347502 0.201981 
45 1 497.275 249.14 7.35705 0.0944114 0.277261 0.790224 0.538293 
36 1 248.563 498.131 4.2762 0.568201 0.409244 0.0975637 0.707212 
33 1 494.04 497.922 -0.345802 0.285512 0.562431 0.666546 0.39733 
7 1 0.830183 -249.905 497.637 0.481438 0.765807 0.399031 0.150103 
9 1 -498.685 3.51584 497.025 0.391373 0.166839 0.861516 0.277094 
13 1 -494.077 245.34 500.031 0.0347051 0.851626 0.340592 0.396896 
14 1 -258.056 251.986 499.053 0.692053 0.565897 0.295993 0.336468 
15 1 -3.09882 250.446 -499.728 0.688415 0.444726 0.310741 0.481397 
2 1 -253.205 498.068 496.527 0.505025 0.693839 0.184358 0.479113 
4 1 249.491 497.542 497.801 0.0403193 0.500861 0.801588 0.323991 
ITEM: TIMESTEP
20000
ITEM: NUMBER OF ATOMS
45
ITEM: BOX BOUNDS pp pp pp
-5.0000000000000000e+02 5.0000000000000000e+02
-5.0000000000000000e+02 5.0000000000000000e+02
-5.0000000000000000e+02 5.0000000000000000e+02
ITEM: ATOMS id type x y z c_q[1] c_q[2] c_q[3] c_q[4] 
1 1 498.452 -498.489 -497.716 0.524881 0.60663 0.408778 0.435202 
5 1 -494.516 -249.331 -495.201 0.158601 0.273645 0.666177 0.675406 
6 1 -248.15 -248.35 -495.649 0.0708035 0.299069 0.71282 0.630423 
8 1 239.637 -249.759 -499.225 0.375334 0.626283 0.64944 0.212417 
9 1 -498.518 1.69675 -498.609 0.382197 0.21494 0.861058 0.257498 
11 1 6.81256 7.33954 -495.322 0.737861 0.645973 0.075512 0.180491 
12 1 240.088 3.02251 -496.454 0.355169 0.666965 0.0724954 0.650966 
13 1 -494.072 247.235 -496.794 0.0265151 0.868928 0.30759 0.386845 
16 1 250.717 246.422 -498.368 0.0805466 0.301824 0.323418 0.893205 
2 1 -250.686 -499.607 -496.727 0.469392 0.713122 0.215204 0.474147 
18 1 -252.914 -499.252 -246.604 0.114265 0.379594 0.591559 0.702076 
20 1 250.64 -496.537 -251.666 0.602074 0.775932 0.169642 0.0815959 
17 1 494.867 -495.47 -249.028 0.321492 0.383388 0.625509 0.598661 
21 1 -496.199 -245.203 -253.437 0.161053 0.409601 0.609275 0.6596 
22 1 -248.845 -249.627 -251.067 0.822532 0.0810774 0.0455446 0.561065 
23 1 -0.833179 -248.572 -237.829 0.707074 0.20018 0.666663 0.124643 
24 1 244.711 -257.513 -244.853 0.807759 0.106455 0.475562 0.331712 
26 1 -244.008 0.971211 -248.143 0.254329 0.561407 0.482045 0.622713 
27 1 3.37117 -3.38841 -254.146 0.0229176 0.939955 0.314019 0.131723 
28 1 245.48 -6.1853 -250.57 0.0889584 0.426667 0.586504 0.682682 
25 1 498.405 1.28755 -252.041 0.522018 0.249724 0.718734 0.38543 
29 1 -496.356 250.908 -246.05 0.585301 0.140941 0.524667 0.601899 
30 1 -252.354 251.998 -258.149 0.699433 0.684688 0.052947 0.197972 
31 1 -3.20622 250.38 -242.452 0.523579 0.688106 0.257408 0.431411 
32 1 256.607 245.353 -251.252 0.52501 0.120189 0.542729 0.644488 
19 1 -0.168672 494.438 -251.085 0.204596 0.723297 0.632106 0.188214 
39 1 -4.71885 -249.291 -4.15347 0.354999 0.659059 0.609421 0.261196 
40 1 248.161 -256.54 -4.77064 0.458016 0.336993 0.108212 0.815442 
43 1 6.6195 3.00697 -2.06687 0.348001 0.57619 0.535892 0.509628 
35 1 -0.537155 -496.016 1.10449 0.667446 0.313078 0.318924 0.595639 
33 1 495.033 -497.438 1.29243 0.261438 0.522361 0.705129 0.401973 
37 1 -496.106 -252.641 1.8934 0.463833 0.363588 0.0914826 0.802679 
38 1 -249.37 -245.544 -0.781758 0.219806 0.517925 0.529529 0.634853 
41 1 -496.71 0.0313268 2.04511 0.2615 0.896504 0.350493 0.0710881 
42 1 -262.681 1.01558 8.77347 0.445735 0.797987 0.319847 0.249471 
44 1 248.55 3.557 3.16768 0.164677 0.634167 0.64216 0.397924 
45 1 491.147 249.805 4.31945 0.116019 0.277214 0.795265 0.526541 
34 1 -250.61 493.954 -0.325161 0.556296 0.0402582 0.535288 0.634335 
36 1 250.652 495.492 6.77177 0.572449 0.417306 0.109778 0.697213 
7 1 4.41093 -248.989 496.598 0.495142 0.758706 0.410384 0.103847 
10 1 -257.233 6.52793 496.413 0.914819 0.274811 0.0532982 0.29111 
14 1 -253.129 251.761 499.238 0.684279 0.536653 0.34261 0.355507 
15 1 -8.16996 250.769 493.884 0.667356 0.492021 0.280543 0.483576 
3 1 0.859045 499.65 499.788 0.593934 0.757196 0.168253 0.213512 
4 1 244.025 494.9 492.406 0.0337009 0.51547 0.800848 0.30298 
ITEM: TIMESTEP
30000
ITEM: NUMBER OF ATOMS
45
ITEM: BOX BOUNDS pp pp pp
-5.0000000000000000e+02 5.0000000000000000e+02
-5.0000000000000000e+02 5.0000000000000000e+02
-5.0000000000000000e+02 5.0000000000000000e+02
ITEM: ATOMS id type x y z c_q[1] c_q[2] c_q[3] c_q[4] 
5 1 -490.46 -252.616 -498.475 0.153874 0.304983 0.645627 0.682989 
6 1 -248.223 -253.161 -489.671 0.030887 0.305331 0.720239 0.622153 
8 1 236.068 -251.33 -493.821 0.401941 0.583248 0.674681 0.207538 
9 1 -495.321 1.66433 -499.115 0.407638 0.212761 0.860956 0.217529 
11 1 1.77856 10.3509 -496.214 0.755891 0.619507 0.0297728 0.209651 
12 1 240.496 6.66062 -494.822 0.343775 0.695398 0.0822749 0.625676 
13 1 -492.037 245.748 -496.234 0.0468808 0.876334 0.322597 0.354645 
16 1 249.709 251.765 -498.48 0.0647669 0.276124 0.347933 0.89359 
2 1 -249.681 497.178 -496.888 0.421624 0.688844 0.267783 0.525375 
1 1 497.077 497.582 -498.578 0.527162 0.594982 0.400809 0.455465 
18 1 -250.251 -498.121 -251.792 0.0933439 0.358867 0.572011 0.731645 
20 1 249.784 -497.211 -253.266 0.621624 0.753614 0.209667 0.0411126 
17 1 495.157 -496.884 -249.563 0.336431 0.388615 0.600086 0.612934 
21 1 -493.738 -247.897 -253.893 0.13687 0.425424 0.593723 0.66916 
22 1 -256.636 -252.426 -252.212 0.819088 0.087121 0.0214347 0.566609 
23 1 -3.59497 -251.122 -233.897 0.700671 0.171774 0.68628 0.0925946 
24 1 245.592 -254.193 -238.394 0.80837 0.106885 0.442245 0.373541 
27 1 7.20188 -4.9106 -257.856 0.00612476 0.926157 0.34332 0.155971 
28 1 241.747 -4.15771 -249.473 0.124402 0.425967 0.611918 0.6547 
25 1 -496.999 0.2829 -253.531 0.522414 0.244269 0.71365 0.397643 
26 1 -241.842 2.68394 -248.836 0.228197 0.48648 0.580559 0.611731 
29 1 -494.118 246.187 -244.136 0.580455 0.150916 0.497465 0.626757 
30 1 -256.444 250.391 -253.81 0.727109 0.655791 0.0328247 0.200431 
31 1 -2.62894 246.872 -245.942 0.537352 0.677725 0.271646 0.422079 
32 1 259.211 248.062 -251.796 0.497998 0.0974416 0.583342 0.634205 
19 1 2.7829 493.474 -253.934 0.203879 0.743541 0.597886 0.219348 
38 1 -256.617 -240.018 -0.395275 0.255181 0.492044 0.526384 0.644745 
39 1 -5.895 -251.89 -4.69091 0.363187 0.6411 0.585455 0.338125 
40 1 252.304 -254.685 -5.21376 0.465159 0.349918 0.0925189 0.807852 
43 1 3.68349 0.656654 0.0315811 0.38872 0.61929 0.478598 0.486129 
33 1 494.652 498.862 -6.97563 0.257259 0.479491 0.720383 0.430064 
35 1 3.67743 -493.529 1.02031 0.676768 0.32158 0.299283 0.590764 
37 1 -493.693 -258.274 -0.378778 0.385276 0.319122 0.113883 0.858344 
41 1 -495.647 3.3978 4.11514 0.283483 0.877978 0.382523 0.0496891 
42 1 -264.538 2.87013 6.45096 0.435609 0.813375 0.320354 0.214566 
44 1 246.181 6.58813 2.18826 0.16124 0.620708 0.682972 0.349675 
45 1 494.509 249.369 4.20521 0.140273 0.252734 0.786841 0.54528 
34 1 -245.912 496.168 2.18611 0.572825 0.0220944 0.537186 0.61872 
36 1 255.445 494.924 1.70038 0.553096 0.413269 0.115962 0.714035 
3 1 5.04727 -496.668 496.454 0.571762 0.752252 0.209084 0.251972 
7 1 -0.325252 -249.438 494.247 0.503004 0.774298 0.372758 0.0922011 
10 1 -261.67 8.68512 498.664 0.906224 0.289277 0.063698 0.301693 
14 1 -256.562 247.085 499.13 0.690444 0.563266 0.335869 0.305303 
15 1 -6.37126 252.094 490.501 0.719566 0.428516 0.267068 0.476732 
4 1 244.88 489.93 494.844 0.0556261 0.533476 0.774594 0.335131 
ITEM: TIMESTEP
40000
ITEM: NUMBER OF ATOMS
45
ITEM: BOX BOUNDS pp pp pp
-5.0000000000000000e+02 5.0000000000000000e+02
-5.0000000000000000e+02 5.0000000000000000e+02
-5.0000000000000000e+02 5.0000000000000000e+02
ITEM: ATOMS id type x y z c_q[1] c_q[2] c_q[3] c_q[4] 
6 1 -249.267 -253.447 -488.792 0.0865877 0.271819 0.694434 0.660589 
8 1 234.702 -251.391 -491.048 0.351534 0.651579 0.643738 0.193573 
11 1 0.455327 3.87423 -495.996 0.75739 0.604016 0.0447639 0.243969 
12 1 240.404 5.24543 -493.315 0.286262 0.695419 0.0952458 0.652208 
13 1 -491.049 242.096 -497.49 0.067574 0.864756 0.323372 0.378235 
14 1 -256.941 244.329 -496.303 0.698144 0.574597 0.335372 0.264498 
2 1 -251.618 499.735 -496.436 0.448753 0.676665 0.24529 0.529697 
1 1 495.362 494.939 -493.859 0.531327 0.595136 0.424008 0.428628 
20 1 252.951 -499.887 -257.096 0.628082 0.758145 0.167684 0.0510978 
21 1 -494.43 -248.085 -254.471 0.19209 0.449711 0.603842 0.629473 
22 1 -253.32 -250.457 -254.049 0.787944 0.0818153 0.0628899 0.607038 
23 1 -5.6123 -247.706 -236.737 0.675688 0.165243 0.713328 0.0854597 
24 1 245.428 -255.572 -234.769 0.822231 0.152059 0.455872 0.30495 
25 1 -497.216 -0.288579 -254.334 0.522752 0.24969 0.728332 0.365949 
28 1 241.139 -5.92292 -252.497 0.107866 0.416324 0.646031 0.630621 
26 1 -235.85 3.01221 -247.344 0.264079 0.513932 0.550558 0.602514 
27 1 9.48722 1.09733 -251.148 0.0192801 0.933136 0.334688 0.129885 
29 1 -495.311 243.757 -244.858 0.56338 0.155008 0.53599 0.609336 
30 1 -256.302 252.692 -250.712 0.716218 0.674575 0.0362765 0.175111 
31 1 -4.05709 244.806 -248.076 0.532585 0.686802 0.236576 0.434382 
32 1 258.68 247.236 -260.738 0.50878 0.070803 0.552479 0.656428 
17 1 -499.388 496.282 -246.424 0.355236 0.375345 0.608504 0.602201 
18 1 -249.542 495.939 -257.123 0.059301 0.351104 0.527229 0.771518 
19 1 -2.2342 492.37 -249.525 0.15742 0.774079 0.570959 0.223665 
35 1 2.99443 -497.516 -3.92751 0.66116 0.291513 0.362397 0.58869 
37 1 -492.924 -258.787 -0.485778 0.380378 0.279457 0.0792622 0.878029 
39 1 -4.98892 -251.111 -4.95224 0.376766 0.645547 0.584982 0.314822 
40 1 248.311 -253.874 -6.50982 0.444321 0.368124 0.0930943 0.811416 
43 1 7.46378 2.19275 -2.06702 0.374219 0.625172 0.502013 0.465943 
36 1 250.729 494.424 0.0977739 0.578246 0.424953 0.101061 0.689081 
33 1 497.014 493.49 -6.25524 0.296583 0.461638 0.705177 0.44906 
38 1 -255.358 -239.926 2.00743 0.207587 0.483054 0.543625 0.654246 
42 1 -265.573 3.3545 5.06785 0.44768 0.80714 0.304618 0.235193 
44 1 243.537 2.41457 1.87393 0.151516 0.606623 0.686861 0.370505 
41 1 498.194 4.15182 5.48149 0.304439 0.86156 0.40465 0.03591 
45 1 491.136 249.702 13.0269 0.161449 0.281321 0.764451 0.557142 
34 1 -243.714 493.107 5.04704 0.606533 0.00987926 0.508027 0.611496 
3 1 5.35202 -497.991 495.604 0.538074 0.786449 0.206313 0.222281 
5 1 -489.203 -254.668 499.706 0.0992294 0.319831 0.647776 0.684286 
7 1 0.496383 -250.591 493.421 0.490632 0.779654 0.388366 0.0243331 
9 1 -497.502 3.67387 497.477 0.382601 0.210803 0.869733 0.229658 
10 1 -256.825 9.62825 498.993 0.924386 0.300653 0.0601372 0.226939 
15 1 -7.66991 255.29 491.127 0.738757 0.48711 0.26847 0.380638 
16 1 255.307 249.506 -499.793 0.0336933 0.269453 0.398113 0.876223 
4 1 247.143 495.562 493.794 0.0577335 0.556034 0.749444 0.35472 
ITEM: TIMESTEP
50000
ITEM: NUMBER OF ATOMS
45
ITEM: BOX BOUNDS pp pp pp
-5.0000000000000000e+02 5.0000000000000000e+02
-5.0000000000000000e+02 5.0000000000000000e+02
-5.0000000000000000e+02 5.0000000000000000e+02
ITEM: ATOMS id type x y z c_q[1] c_q[2] c_q[3] c_q[4] 
2 1 -252.99 -498.038 -499.784 0.429279 0.679175 0.228606 0.549708 
5 1 -491.547 -250.287 -493.554 0.0587014 0.299381 0.629126 0.714931 
6 1 -252.421 -258.749 -484.23 0.0887203 0.282336 0.678311 0.672539 
8 1 233.04 -253.82 -493.474 0.364124 0.642558 0.652661 0.169015 
11 1 3.67334 10.3579 -494.709 0.762559 0.580676 0.050875 0.280591 
12 1 241.94 6.60805 -495.481 0.290099 0.686255 0.103039 0.658999 
13 1 -489.893 242.868 -493.63 0.0733618 0.86436 0.28538 0.407502 
14 1 -259.729 238.991 -493.45 0.727718 0.568809 0.281371 0.260217 
1 1 -497.038 498.54 -493.643 0.533844 0.575276 0.423311 0.452633 
18 1 -251.023 -499.101 -259.791 0.0212633 0.376154 0.517449 0.768312 
21 1 -493.61 -250.413 -252.018 0.210551 0.44474 0.597623 0.633026 
22 1 -250.44 -255.586 -254.183 0.811473 0.0847315 0.046917 0.576307 
23 1 -1.30371 -251.147 -235.93 0.728546 0.125196 0.656957 0.148168 
24 1 246.507 -254.374 -235.728 0.78422 0.208005 0.479885 0.333831 
27 1 10.5085 -5.74518 -252.498 0.00554224 0.931351 0.319492 0.174584 
28 1 238.783 -7.142 -248.341 0.107208 0.360541 0.679218 0.630222 
25 1 498.499 -1.06803 -249.615 0.534291 0.235811 0.719786 0.37528 
26 1 -233.189 3.1334 -248.133 0.245274 0.514636 0.56613 0.595388 
29 1 -498.293 242.044 -242.44 0.548157 0.150745 0.54437 0.616815 
30 1 -251.088 256.428 -251.164 0.715295 0.68219 0.0586801 0.139738 
31 1 -0.647888 243.511 -250.397 0.529225 0.677676 0.195579 0.471619 
32 1 260.655 248.034 -256.598 0.549382 0.122585 0.52016 0.642329 
19 1 -4.18228 494.3 -249.432 0.125673 0.76947 0.577879 0.241199 
20 1 251.05 496.379 -258.311 0.652656 0.737217 0.170049 0.0404375 
17 1 499.039 489.852 -250.328 0.325907 0.410839 0.6548 0.544273 
35 1 5.09458 -500.075 -5.40409 0.694323 0.287695 0.368704 0.546996 
37 1 -492.447 -262.036 -4.67041 0.357552 0.32931 0.09349 0.868891 
39 1 -4.66263 -249.835 -8.29114 0.427496 0.632019 0.573985 0.29722 
40 1 248.763 -258.23 -3.95353 0.398054 0.395294 0.0611045 0.825567 
44 1 242.254 -0.860077 -2.01106 0.111306 0.6244 0.667698 0.389763 
33 1 495.339 495.702 -5.39036 0.325141 0.459133 0.701353 0.437704 
38 1 -256.289 -239.409 9.88671 0.201985 0.475475 0.534316 0.669053 
42 1 -269.557 8.27726 3.76115 0.471735 0.80801 0.24834 0.250826 
43 1 3.18485 1.19835 1.0955 0.383005 0.605212 0.508526 0.477939 
41 1 495.182 6.68088 5.50277 0.284897 0.855901 0.428598 0.0506993 
45 1 494.831 253.269 12.7787 0.17992 0.250268 0.722892 0.618403 
34 1 -240.974 495.095 3.74032 0.559798 0.0150028 0.532732 0.634506 
36 1 249.456 493.633 5.51635 0.562491 0.411354 0.119611 0.707166 
3 1 6.34279 -499.851 492.303 0.487504 0.803635 0.252249 0.22996 
7 1 -4.37488 -255.25 498.51 0.463026 0.786329 0.408932 -0.00823384 
9 1 499.514 0.886852 498.432 0.441037 0.169491 0.860722 0.189516 
10 1 -257.434 8.12003 -499.813 0.921723 0.318415 0.0194181 0.220593 
15 1 -8.52196 255.47 494.53 0.751894 0.459856 0.237505 0.408386 
16 1 256.678 252.309 498.676 0.0754089 0.317887 0.43418 0.839494 
4 1 248.637 -498.98 496.539 0.0566391 0.53538 0.757707 0.368837 
ITEM: TIMESTEP
60000
ITEM: NUMBER OF ATOMS
45
ITEM: BOX BOUNDS pp pp pp
-5.0000000000000000e+02 5.0000000000000000e+02
-5.0000000000000000e+02 5.0000000000000000e+02
-5.0000000000000000e+02 5.0000000000000000e+02
ITEM: ATOMS id type x y z c_q[1] c_q[2] c_q[3] c_q[4] 
5 1 -491.717 -250.59 -492.588 0.0543425 0.278588 0.625725 0.72657 
6 1 -250.956 -261.331 -476.906 0.0649747 0.273611 0.675104 0.682019 
8 1 236.807 -255.599 -496.512 0.405299 0.626211 0.645047 0.165852 
11 1 6.08883 13.7649 -495.855 0.761768 0.550068 0.0303082 0.340905 
12 1 242.545 6.77387 -488.334 0.269483 0.699865 0.0822683 0.656354 
13 1 -489.893 241.151 -489.729 0.103231 0.874367 0.260441 0.396229 
14 1 -259.415 241.557 -492.533 0.741525 0.550362 0.302892 0.235582 
1 1 -494.255 -499.291 -492.932 0.520634 0.564099 0.424732 0.479932 
18 1 -244.9 -491.857 -264.966 0.02552 0.377153 0.491748 0.784404 
21 1 -490.292 -249.35 -247.897 0.18474 0.432105 0.612209 0.63589 
22 1 -249.392 -258.611 -257.05 0.81327 0.0660291 0.0884854 0.571316 
23 1 -1.11882 -257.424 -234.279 0.742389 0.105488 0.644348 0.150154 
24 1 248.169 -252.263 -237.871 0.792805 0.22176 0.471644 0.315965 
25 1 -500.057 -2.49472 -250.262 0.490352 0.206129 0.728172 0.432239 
26 1 -231.829 -0.334687 -247.065 0.256264 0.475555 0.551535 0.635598 
27 1 8.00734 -5.92431 -253.169 -0.00672356 0.934835 0.331798 0.12629 
28 1 232.407 -11.5606 -247.207 0.043146 0.322005 0.653523 0.683637 
29 1 -497.01 240.349 -235.623 0.534094 0.152268 0.561837 0.613104 
30 1 -253.471 254.267 -249.464 0.698781 0.695749 0.0706586 0.150486 
31 1 -0.609278 243.471 -253.457 0.561984 0.650877 0.197703 0.470581 
32 1 260.445 253.719 -254.01 0.547092 0.156745 0.524992 0.632854 
17 1 -498.809 489.193 -256.64 0.310552 0.461906 0.620992 0.551878 
19 1 -1.76699 495.406 -250.296 0.139924 0.722125 0.622661 0.266928 
20 1 247.904 496.486 -254.854 0.635548 0.748052 0.186483 0.0414802 
37 1 -491.237 -257.757 -4.08194 0.338236 0.28177 0.0930313 0.893055 
39 1 -5.55757 -250.088 -10.5398 0.439898 0.594119 0.614031 0.276547 
40 1 250.078 -251.904 -3.61445 0.426314 0.398723 0.0449109 0.810715 
44 1 244.373 -2.9092 -6.536 0.126411 0.615585 0.682199 0.373738 
35 1 6.98684 499.237 -2.62935 0.696736 0.294898 0.327692 0.565873 
38 1 -263.206 -237.76 14.8742 0.215684 0.476285 0.535968 0.662851 
42 1 -267.946 8.3595 2.32083 0.48682 0.79585 0.250996 0.258128 
43 1 4.21743 -0.401112 1.17777 0.431697 0.608534 0.471292 0.470328 
41 1 496.111 10.0229 10.275 0.30924 0.864996 0.393528 0.0358917 
45 1 497.126 252.778 8.25208 0.205731 0.235593 0.705026 0.636481 
34 1 -235.914 493.862 5.67754 0.583658 -0.0206004 0.47688 0.65689 
36 1 250.853 496.113 2.88549 0.527824 0.468607 0.124049 0.697439 
33 1 498.815 496.157 0.472584 0.332664 0.47086 0.693219 0.43252 
2 1 -257.055 -495.287 498.785 0.38028 0.721018 0.20051 0.54343 
3 1 12.2187 -497.69 494.367 0.482313 0.815318 0.192132 0.256352 
4 1 249.873 -495.12 497.333 0.0386633 0.513458 0.763355 0.390071 
7 1 -1.78537 -255.738 -499.743 0.489389 0.782552 0.384695 -0.010931 
9 1 -493.518 -3.87454 494.866 0.444264 0.192629 0.851766 0.200046 
10 1 -254.211 13.5581 496.913 0.908072 0.35707 -0.0185161 0.218092 
15 1 -16.0262 258.989 496.533 0.768332 0.444009 0.235755 0.396159 
16 1 259.484 256.497 499.631 0.072033 0.338208 0.441884 0.827747 
ITEM: TIMESTEP
70000
ITEM: NUMBER OF ATOMS
45
ITEM: BOX BOUNDS pp pp pp
-5.0000000000000000e+02 5.0000000000000000e+02
-5.0000000000000000e+02 5.0000000000000000e+02
-5.0000000000000000e+02 5.0000000000000000e+02
ITEM: ATOMS id type x y z c_q[1] c_q[2] c_q[3] c_q[4] 
1 1 -492.737 -494.697 -494.044 0.506318 0.563719 0.461637 0.461254 
5 1 -493.603 -255.69 -488.674 0.0504738 0.212171 0.66575 0.713592 
6 1 -252.449 -262.196 -478.456 0.0846409 0.287189 0.667971 0.681302 
7 1 3.12071 -258.468 -497.674 0.451309 0.798304 0.398375 0.0181203 
11 1 4.42612 10.6673 -494.093 0.781582 0.555303 0.0504908 0.279676 
12 1 243.983 12.4191 -486.674 0.255562 0.717972 0.102362 0.639317 
13 1 -483.701 243.908 -492.879 0.125352 0.890328 0.244903 0.362802 
14 1 -263.115 244.356 -493.385 0.757404 0.534495 0.307615 0.214539 
15 1 -15.6031 261.502 -500.168 0.774649 0.466784 0.209036 0.371936 
2 1 -258.998 499.737 -498.713 0.370436 0.676214 0.204811 0.602964 
18 1 -245.191 -494.851 -268.141 0.0264884 0.383607 0.448271 0.806968 
20 1 242.14 -499.264 -255.077 0.660525 0.723603 0.194372 0.0482142 
21 1 -491.609 -249.069 -245.799 0.150471 0.427185 0.63988 0.620826 
22 1 -249.753 -259.239 -260.623 0.828846 0.0663081 0.114248 0.543659 
23 1 -3.76128 -251.833 -238.375 0.762409 0.111034 0.621855 0.140358 
24 1 246.455 -257.456 -238.16 0.785014 0.194855 0.498357 0.31213 
27 1 9.87821 -7.88259 -255.135 0.00279652 0.929651 0.36093 0.0739635 
28 1 234.593 -15.5123 -247.405 0.105286 0.293347 0.668634 0.675123 
25 1 494.586 -4.32403 -254.873 0.497335 0.169402 0.742016 0.41638 
26 1 -229.948 1.54133 -246.276 0.281996 0.410103 0.576497 0.648032 
29 1 -496.809 241.35 -231.927 0.510452 0.179989 0.560752 0.626578 
30 1 -257.421 253.362 -250.4 0.720615 0.664921 0.0819666 0.178539 
31 1 0.499373 243.526 -252.058 0.547799 0.648864 0.222377 0.478999 
32 1 262.143 255.282 -254.357 0.541026 0.133644 0.519832 0.647461 
17 1 499.532 485.241 -257.449 0.30501 0.455466 0.587602 0.595183 
19 1 1.32175 496.038 -249.804 0.111816 0.719714 0.63902 0.247312 
35 1 2.9896 -499.691 -0.956259 0.716926 0.293796 0.300704 0.556128 
37 1 -487.27 -258.686 -0.807048 0.3409 0.317273 0.083798 0.880967 
39 1 -7.03489 -249.37 -11.1323 0.434833 0.611218 0.609571 0.256431 
42 1 -272.448 9.00991 -0.504063 0.493019 0.762129 0.316276 0.275792 
43 1 -0.109589 0.227759 -3.72395 0.456597 0.64168 0.395035 0.472983 
44 1 236.96 2.1654 -7.82887 0.18385 0.615961 0.663743 0.382409 
33 1 499.386 493.398 -4.22219 0.356203 0.446875 0.691493 0.441882 
36 1 246.97 -498.937 2.57723 0.486513 0.460625 0.119513 0.732698 
38 1 -259.175 -240.034 11.0076 0.225726 0.461233 0.554773 0.654629 
40 1 249.925 -257.006 1.36582 0.424841 0.387227 0.0729719 0.815009 
41 1 496.793 9.19164 12.5043 0.33999 0.870551 0.355272 0.0181714 
45 1 -494.924 250.99 9.29953 0.246499 0.22618 0.709782 0.619911 
34 1 -237.673 493.471 4.27521 0.620805 -0.00841374 0.435141 0.65206 
3 1 9.84535 -495.4 494.501 0.497823 0.803883 0.20808 0.250294 
4 1 254.164 -497.761 497.67 0.0340797 0.54831 0.755639 0.356658 
8 1 230.323 -255.266 494.454 0.396901 0.637245 0.641312 0.158451 
9 1 -491.375 -1.01614 498.553 0.42617 0.235503 0.85733 0.16704 
10 1 -251.073 13.5148 495.878 0.919052 0.353549 -0.0308828 0.171445 
16 1 262.201 255.665 497.442 0.117913 0.347224 0.471753 0.801861 
ITEM: TIMESTEP
80000
ITEM: NUMBER OF ATOMS
45
ITEM: BOX BOUNDS pp pp pp
-5.0000000000000000e+02 5.0000000000000000e+02
-5.0000000000000000e+02 5.0000000000000000e+02
-5.0000000000000000e+02 5.0000000000000000e+02
ITEM: ATOMS id type x y z c_q[1] c_q[2] c_q[3] c_q[4] 
1 1 -488.992 -496.715 499.067 0.552375 0.512022 0.434798 0.493625 
5 1 -492.519 -254.044 -484.2 0.0216593 0.212466 0.636292 0.741297 
6 1 -255.671 -263.506 -476.405 0.10796 0.291518 0.639346 0.703277 
11 1 7.14939 11.1752 -498.663 0.790563 0.536958 0.0558511 0.289081 
12 1 242.569 11.7974 -486.057 0.295982 0.711691 0.106929 0.628058 
13 1 -488.622 244.372 -494.838 0.0838689 0.904862 0.209366 0.361049 
14 1 -266.07 247.646 -491.686 0.76843 0.525742 0.298671 0.209536 
18 1 -244.513 -493.739 -267.591 0.0325976 0.353347 0.453137 0.817772 
20 1 242.096 -497.926 -250.174 0.702508 0.694694 0.15314 0.0207516 
21 1 -489.125 -248.193 -248.765 0.12918 0.42777 0.656706 0.607505 
22 1 -247.31 -262.408 -258.904 0.810403 0.087377 0.15442 0.55836 
23 1 -7.96182 -247.539 -239.623 0.732049 0.0422462 0.646486 0.210655 
24 1 243.537 -262.666 -239.447 0.762025 0.190086 0.522707 0.331604 
27 1 7.68415 -8.26657 -257.238 0.0176019 0.933734 0.354106 0.0493913 
28 1 233.485 -11.8025 -250.817 0.0905064 0.276314 0.654448 0.697966 
25 1 495.131 -5.69925 -255.184 0.511686 0.156719 0.743267 0.40146 
26 1 -232.617 5.03448 -245.618 0.307606 0.358146 0.595009 0.650441 
29 1 -498.743 247.376 -225.472 0.503154 0.157727 0.517183 0.674151 
30 1 -257.414 254.229 -252.198 0.723335 0.673657 0.0686792 0.13511 
31 1 3.97517 238.819 -245.35 0.566344 0.641848 0.240954 0.457414 
32 1 261.625 254.446 -255.48 0.532305 0.127104 0.570438 0.612451 
19 1 -7.32651 493.238 -255.695 0.0780116 0.723959 0.646252 0.228376 
17 1 499.601 482.136 -259.701 0.296696 0.472372 0.609021 0.563852 
39 1 -7.06159 -251.685 -9.10906 0.464502 0.566299 0.636179 0.242526 
43 1 -2.86153 -2.19248 -0.175929 0.413947 0.667442 0.432663 0.442686 
42 1 -271.597 3.61035 -2.84748 0.507649 0.758002 0.292148 0.287011 
44 1 235.026 6.98054 -8.65889 0.170526 0.647785 0.634665 0.385351 
35 1 3.90205 496.713 -5.13769 0.742099 0.269683 0.244963 0.562631 
33 1 498.813 495.452 -6.19636 0.345259 0.460986 0.713333 0.399305 
36 1 248.164 -495.874 -0.820953 0.479484 0.45393 0.13959 0.737941 
37 1 -482.801 -257.842 2.96487 0.322798 0.338915 0.0722233 0.880751 
38 1 -259.626 -238.599 15.4734 0.220435 0.47041 0.589527 0.618531 
40 1 247.933 -252.142 -0.119321 0.432331 0.427405 0.0458337 0.792663 
41 1 498.428 9.20679 11.6755 0.357153 0.877682 0.319265 -0.0136245 
45 1 -491.722 253.973 6.66369 0.247636 0.246281 0.684433 0.639979 
34 1 -243.724 488.341 1.78513 0.6438 0.0423486 0.417118 0.64011 
2 1 -254.583 -495.96 498.997 0.354965 0.687375 0.204115 0.599877 
3 1 14.8596 -492.863 494.705 0.475621 0.796558 0.239611 0.286123 
4 1 251.573 -492.128 494.965 0.00336055 0.532509 0.764174 0.363951 
7 1 13.1167 -260.716 497.815 0.466905 0.791835 0.393661 -0.00535194 
8 1 221.056 -256.592 494.956 0.382798 0.646526 0.639854 0.161417 
9 1 -485.159 -4.53592 499.264 0.432764 0.243777 0.84192 0.210851 
10 1 -253.316 11.1325 498.811 0.920517 0.338043 -0.0229303 0.194548 
15 1 -16.2225 260.405 498.206 0.779589 0.452331 0.255403 0.349867 
16 1 257.597 260.071 498.143 0.111032 0.313625 0.472689 0.816012 
ITEM: TIMESTEP
90000
ITEM: NUMBER OF ATOMS
45
ITEM: BOX BOUNDS pp pp pp
-5.0000000000000000e+02 5.0000000000000000e+02
-5.0000000000000000e+02 5.0000000000000000e+02
-5.0000000000000000e+02 5.0000000000000000e+02
ITEM: ATOMS id type x y z c_q[1] c_q[2] c_q[3] c_q[4] 
5 1 -493.864 -247.528 -492.677 0.0348296 0.218959 0.603089 0.766242 
6 1 -260.114 -257.695 -477.396 0.132855 0.304423 0.627853 0.703901 
10 1 -252.981 16.4078 499.165 0.917352 0.354738 -0.0539848 0.172373 
11 1 4.24132 13.5558 -499.669 0.78892 0.5429 0.0411595 0.284903 
12 1 245.707 6.62679 -491.305 0.337989 0.727197 0.067462 0.59363 
13 1 -488.97 244.607 -496.548 0.0698406 0.929128 0.202212 0.301584 
14 1 -263.95 251.094 -491.558 0.741462 0.550034 0.349376 0.160105 
16 1 260.352 252.651 -499.292 0.188465 0.346215 0.454394 0.798838 
18 1 -248.607 -494.333 -272.782 0.0774873 0.321292 0.436124 0.836996 
20 1 245.636 -499.628 -253.958 0.712002 0.688976 0.131843 0.0313485 