ITEM: TIMESTEP
0
ITEM: NUMBER OF ATOMS
60
ITEM: BOX BOUNDS
-500.000000 500.000000
-500.000000 500.000000
-500.000000 500.000000
ITEM: ATOMS id type x y z c_q[1] c_q[2] c_q[3] c_q[4]
1 1 -500.000000 -500.000000 -500.000000 0.032013 0.729795 0.276174 0.624581
2 1 -250.000000 -500.000000 -500.000000 0.107903 0.735180 0.536591 0.399920
3 1 0.000000 -500.000000 -500.000000 0.071825 0.614991 0.656816 0.430372
4 1 250.000000 -500.000000 -500.000000 0.534751 0.536720 0.342501 0.555577
5 1 -500.000000 -250.000000 -500.000000 0.594718 0.236349 0.737492 0.215766
6 1 -250.000000 -250.000000 -500.000000 0.755357 0.480739 0.116301 0.429883
7 1 0.000000 -250.000000 -500.000000 0.315582 0.657891 0.288442 0.619991
8 1 250.000000 -250.000000 -500.000000 0.676455 0.440193 0.339109 0.483367
9 1 -500.000000 0.000000 -500.000000 0.469300 0.515644 0.704198 0.134063
10 1 -250.000000 0.000000 -500.000000 0.393965 0.169707 0.473844 0.769066
11 1 0.000000 0.000000 -500.000000 0.352373 0.043259 0.600132 0.716801
12 1 250.000000 0.000000 -500.000000 0.674505 0.679481 0.261702 0.121903
13 1 -500.000000 250.000000 -500.000000 0.493214 0.601688 0.113434 0.617936
14 1 -250.000000 250.000000 -500.000000 0.737594 0.560736 0.352277 0.132028
15 1 0.000000 250.000000 -500.000000 0.595075 0.433497 0.539278 0.408834
16 1 250.000000 250.000000 -500.000000 0.600206 0.561583 0.556376 0.121753
17 1 -500.000000 -500.000000 -250.000000 0.281025 0.656321 0.392048 0.580143
18 1 -250.000000 -500.000000 -250.000000 0.105836 0.645756 0.387492 0.649344
19 1 0.000000 -500.000000 -250.000000 0.835365 0.022299 0.042357 0.547608
20 1 250.000000 -500.000000 -250.000000 0.183940 0.563824 0.586657 0.551455
21 1 -500.000000 -250.000000 -250.000000 0.339593 0.901774 0.124604 0.236544
22 1 -250.000000 -250.000000 -250.000000 0.611750 0.496440 0.415546 0.454567
23 1 0.000000 -250.000000 -250.000000 0.556164 0.135197 0.234209 0.785843
24 1 250.000000 -250.000000 -250.000000 0.200557 0.675908 0.481390 0.520758
25 1 -500.000000 0.000000 -250.000000 0.342947 0.701839 0.239517 0.576577
26 1 -250.000000 0.000000 -250.000000 0.214095 0.694541 0.683871 0.064007
27 1 0.000000 0.000000 -250.000000 0.094627 0.559134 0.752533 0.334828
28 1 250.000000 0.000000 -250.000000 0.571831 0.487082 0.620411 0.225501
29 1 -500.000000 250.000000 -250.000000 0.639840 0.642461 0.075956 0.414823
30 1 -250.000000 250.000000 -250.000000 0.486493 0.572865 0.251404 0.609874
31 1 0.000000 250.000000 -250.000000 0.468813 0.724446 0.466904 0.193374
32 1 250.000000 250.000000 -250.000000 0.001929 0.175998 0.802339 0.570327
33 1 -500.000000 -500.000000 0.000000 0.442569 0.551163 0.400677 0.582932
34 1 -250.000000 -500.000000 0.000000 0.091542 0.352044 0.129348 0.922472
35 1 0.000000 -500.000000 0.000000 0.718157 0.018945 0.689085 0.095145
36 1 250.000000 -500.000000 0.000000 0.655093 0.414035 0.006620 0.631968
37 1 -500.000000 -250.000000 0.000000 0.235219 0.405586 0.610315 0.638504
38 1 -250.000000 -250.000000 0.000000 0.451075 0.637069 0.578758 0.236038
39 1 0.000000 -250.000000 0.000000 0.483290 0.589091 0.420416 0.492597
40 1 250.000000 -250.000000 0.000000 0.036991 0.666435 0.413174 0.619503
41 1 -500.000000 0.000000 0.000000 0.131541 0.324126 0.423114 0.835831
42 1 -250.000000 0.000000 0.000000 0.095377 0.432946 0.700312 0.559485
43 1 0.000000 0.000000 0.000000 0.885807 0.199018 0.129888 0.398580
44 1 250.000000 0.000000 0.000000 0.294098 0.048011 0.844846 0.444338
45 1 -500.000000 250.000000 0.000000 0.608939 0.374810 0.506272 0.482079
46 1 -250.000000 250.000000 0.000000 0.497026 0.389233 0.747205 0.207721
47 1 0.000000 250.000000 0.000000 0.695904 0.300599 0.553264 0.345335
48 1 250.000000 250.000000 0.000000 0.139966 0.269660 0.215934 0.927936
49 1 -500.000000 -500.000000 250.000000 0.234066 0.380077 0.777218 0.443494
50 1 -250.000000 -500.000000 250.000000 0.891837 0.386612 0.076112 0.222182
51 1 0.000000 -500.000000 250.000000 0.616242 0.089185 0.495939 0.605258
52 1 250.000000 -500.000000 250.000000 0.039441 0.455200 0.346035 0.819449
53 1 -500.000000 -250.000000 250.000000 0.208963 0.563556 0.728922 0.327737
54 1 -250.000000 -250.000000 250.000000 0.194439 0.679630 0.372094 0.601534
55 1 0.000000 -250.000000 250.000000 0.659170 0.596837 0.211062 0.405873
56 1 250.000000 -250.000000 250.000000 0.630083 0.686582 0.355559 0.071955
57 1 -500.000000 0.000000 250.000000 0.593967 0.185824 0.285362 0.728863
58 1 -250.000000 0.000000 250.000000 0.192037 0.225152 0.620387 0.726326
59 1 0.000000 0.000000 250.000000 0.424832 0.648856 0.092273 0.624491
60 1 250.000000 0.000000 250.000000 0.166591 0.681980 0.242803 0.669475
