LAMMPS data file

5 atoms
5 ellipsoids
0 bonds
0 angles
0 dihedrals

1 atom types
0 bond types
0 angle types
0 dihedral types

-500.000000 500.000000 xlo xhi
-500.000000 500.000000 ylo yhi
-500.000000 500.000000 zlo zhi

Masses

1 203166.000000

Atoms

1 1 -500.000000 -500.000000 -500.000000 1 1.000000 3 0.000000
2 1 0.000000 -500.000000 -500.000000 1 1.000000 4 0.000000
3 1 -500.000000 0.000000 -500.000000 1 1.000000 5 0.000000
4 1 0.000000 0.000000 -500.000000 1 1.000000 6 0.000000
5 1 -500.000000 -500.000000 0.000000 1 1.000000 7 0.000000

Ellipsoids

1 55.000000 110.000000 110.000000 0.379227 0.065431 0.430001 0.816704
2 55.000000 110.000000 110.000000 0.632746 0.366376 0.394202 0.556781
3 55.000000 110.000000 110.000000 0.322910 0.781250 0.452959 0.283206
4 55.000000 110.000000 110.000000 0.479846 0.475616 0.392333 0.624190
5 55.000000 110.000000 110.000000 0.473458 0.477123 0.563281 0.480527




