LAMMPS data file

35 atoms
35 ellipsoids
0 bonds
0 angles
0 dihedrals

1 atom types
0 bond types
0 angle types
0 dihedral types

-500.000000 500.000000 xlo xhi
-500.000000 500.000000 ylo yhi
-500.000000 500.000000 zlo zhi

Masses

1 203166.000000

Atoms

1 1 -500.000000 -500.000000 -500.000000 1 1.000000 3 0.000000
2 1 -250.000000 -500.000000 -500.000000 1 1.000000 4 0.000000
3 1 0.000000 -500.000000 -500.000000 1 1.000000 5 0.000000
4 1 250.000000 -500.000000 -500.000000 1 1.000000 6 0.000000
5 1 -500.000000 -250.000000 -500.000000 1 1.000000 7 0.000000
6 1 -250.000000 -250.000000 -500.000000 1 1.000000 8 0.000000
7 1 0.000000 -250.000000 -500.000000 1 1.000000 9 0.000000
8 1 250.000000 -250.000000 -500.000000 1 1.000000 10 0.000000
9 1 -500.000000 0.000000 -500.000000 1 1.000000 11 0.000000
10 1 -250.000000 0.000000 -500.000000 1 1.000000 12 0.000000
11 1 0.000000 0.000000 -500.000000 1 1.000000 13 0.000000
12 1 250.000000 0.000000 -500.000000 1 1.000000 14 0.000000
13 1 -500.000000 250.000000 -500.000000 1 1.000000 15 0.000000
14 1 -250.000000 250.000000 -500.000000 1 1.000000 16 0.000000
15 1 0.000000 250.000000 -500.000000 1 1.000000 17 0.000000
16 1 250.000000 250.000000 -500.000000 1 1.000000 18 0.000000
17 1 -500.000000 -500.000000 -250.000000 1 1.000000 19 0.000000
18 1 -250.000000 -500.000000 -250.000000 1 1.000000 20 0.000000
19 1 0.000000 -500.000000 -250.000000 1 1.000000 21 0.000000
20 1 250.000000 -500.000000 -250.000000 1 1.000000 22 0.000000
21 1 -500.000000 -250.000000 -250.000000 1 1.000000 23 0.000000
22 1 -250.000000 -250.000000 -250.000000 1 1.000000 24 0.000000
23 1 0.000000 -250.000000 -250.000000 1 1.000000 25 0.000000
24 1 250.000000 -250.000000 -250.000000 1 1.000000 26 0.000000
25 1 -500.000000 0.000000 -250.000000 1 1.000000 27 0.000000
26 1 -250.000000 0.000000 -250.000000 1 1.000000 28 0.000000
27 1 0.000000 0.000000 -250.000000 1 1.000000 29 0.000000
28 1 250.000000 0.000000 -250.000000 1 1.000000 30 0.000000
29 1 -500.000000 250.000000 -250.000000 1 1.000000 31 0.000000
30 1 -250.000000 250.000000 -250.000000 1 1.000000 32 0.000000
31 1 0.000000 250.000000 -250.000000 1 1.000000 33 0.000000
32 1 250.000000 250.000000 -250.000000 1 1.000000 34 0.000000
33 1 -500.000000 -500.000000 0.000000 1 1.000000 35 0.000000
34 1 -250.000000 -500.000000 0.000000 1 1.000000 36 0.000000
35 1 0.000000 -500.000000 0.000000 1 1.000000 37 0.000000

Ellipsoids

1 55.000000 110.000000 110.000000 0.519714 0.541963 0.293673 0.591549
2 55.000000 110.000000 110.000000 0.330837 0.656405 0.046592 0.676393
3 55.000000 110.000000 110.000000 0.875966 0.118819 0.049078 0.464926
4 55.000000 110.000000 110.000000 0.353033 0.618397 0.698911 0.066904
5 55.000000 110.000000 110.000000 0.368004 0.650137 0.143998 0.648968
6 55.000000 110.000000 110.000000 0.369905 0.288320 0.556590 0.685747
7 55.000000 110.000000 110.000000 0.267855 0.369681 0.072671 0.886740
8 55.000000 110.000000 110.000000 0.591720 0.433807 0.402089 0.547726
9 55.000000 110.000000 110.000000 0.401337 0.565361 0.651984 0.306942
10 55.000000 110.000000 110.000000 0.535944 0.023044 0.642395 0.547322
11 55.000000 110.000000 110.000000 0.602290 0.348543 0.409349 0.590083
12 55.000000 110.000000 110.000000 0.291353 0.457321 0.836559 0.078360
13 55.000000 110.000000 110.000000 0.288142 0.601257 0.398033 0.630106
14 55.000000 110.000000 110.000000 0.530439 0.342127 0.726753 0.270948
15 55.000000 110.000000 110.000000 0.399295 0.570852 0.346248 0.628334
16 55.000000 110.000000 110.000000 0.538642 0.184975 0.341219 0.747810
17 55.000000 110.000000 110.000000 0.162554 0.238565 0.522847 0.802056
18 55.000000 110.000000 110.000000 0.763399 0.115510 0.489761 0.404986
19 55.000000 110.000000 110.000000 0.105673 0.692030 0.401557 0.590491
20 55.000000 110.000000 110.000000 0.183513 0.683347 0.395578 0.585558
21 55.000000 110.000000 110.000000 0.763891 0.077347 0.634999 0.085236
22 55.000000 110.000000 110.000000 0.748705 0.371278 0.018076 0.548878
23 55.000000 110.000000 110.000000 0.001545 0.448346 0.356468 0.819704
24 55.000000 110.000000 110.000000 0.166119 0.297096 0.091939 0.935781
25 55.000000 110.000000 110.000000 0.689600 0.315982 0.039557 0.650417
26 55.000000 110.000000 110.000000 0.318100 0.895440 0.310559 0.023504
27 55.000000 110.000000 110.000000 0.620823 0.280106 0.728201 0.076434
28 55.000000 110.000000 110.000000 0.040839 0.813009 0.557911 0.161506
29 55.000000 110.000000 110.000000 0.481612 0.241196 0.798857 0.267773
30 55.000000 110.000000 110.000000 0.370472 0.579377 0.560912 0.460924
31 55.000000 110.000000 110.000000 0.035506 0.177995 0.695313 0.695411
32 55.000000 110.000000 110.000000 0.648002 0.198868 0.446436 0.584157
33 55.000000 110.000000 110.000000 0.395320 0.060813 0.619497 0.675461
34 55.000000 110.000000 110.000000 0.550141 0.003938 0.687584 0.473875
35 55.000000 110.000000 110.000000 0.926197 0.187914 0.303451 0.121513




