ITEM: TIMESTEP
0
ITEM: NUMBER OF ATOMS
45
ITEM: BOX BOUNDS
-500.000000 500.000000
-500.000000 500.000000
-500.000000 500.000000
ITEM: ATOMS id type x y z c_q[1] c_q[2] c_q[3] c_q[4]
1 1 -500.000000 -500.000000 -500.000000 0.548661 0.526678 0.513129 0.397844
2 1 -250.000000 -500.000000 -500.000000 0.395258 0.558213 0.462061 0.564508
3 1 0.000000 -500.000000 -500.000000 0.879170 0.200882 0.414053 0.123561
4 1 250.000000 -500.000000 -500.000000 0.428073 0.532628 0.499272 0.532717
5 1 -500.000000 -250.000000 -500.000000 0.027799 0.932613 0.095991 0.346765
6 1 -250.000000 -250.000000 -500.000000 0.693068 0.693646 0.059475 0.187013
7 1 0.000000 -250.000000 -500.000000 0.350021 0.872671 0.038406 0.338312
8 1 250.000000 -250.000000 -500.000000 0.861485 0.189572 0.346983 0.318604
9 1 -500.000000 0.000000 -500.000000 0.402088 0.354015 0.829469 0.158048
10 1 -250.000000 0.000000 -500.000000 0.874544 0.356199 0.163914 0.285355
11 1 0.000000 0.000000 -500.000000 0.000192 0.756693 0.405930 0.512481
12 1 250.000000 0.000000 -500.000000 0.398378 0.319714 0.107718 0.852921
13 1 -500.000000 250.000000 -500.000000 0.485756 0.329574 0.301824 0.751215
14 1 -250.000000 250.000000 -500.000000 0.077915 0.639721 0.724668 0.244013
15 1 0.000000 250.000000 -500.000000 0.745108 0.246874 0.122857 0.607267
16 1 250.000000 250.000000 -500.000000 0.534654 0.610601 0.446639 0.376598
17 1 -500.000000 -500.000000 -250.000000 0.125549 0.715419 0.464437 0.506667
18 1 -250.000000 -500.000000 -250.000000 0.131838 0.613185 0.521468 0.578528
19 1 0.000000 -500.000000 -250.000000 0.236420 0.117135 0.878591 0.398074
20 1 250.000000 -500.000000 -250.000000 0.321061 0.876560 0.248264 0.258702
21 1 -500.000000 -250.000000 -250.000000 0.276221 0.786366 0.279544 0.476640
22 1 -250.000000 -250.000000 -250.000000 0.252666 0.610164 0.495148 0.564525
23 1 0.000000 -250.000000 -250.000000 0.134426 0.353555 0.821918 0.425888
24 1 250.000000 -250.000000 -250.000000 0.854912 0.319157 0.015845 0.408672
25 1 -500.000000 0.000000 -250.000000 0.794236 0.506564 0.328602 0.067844
26 1 -250.000000 0.000000 -250.000000 0.627181 0.179520 0.112083 0.749569
27 1 0.000000 0.000000 -250.000000 0.267007 0.513038 0.699718 0.419397
28 1 250.000000 0.000000 -250.000000 0.764509 0.440249 0.415712 0.221111
29 1 -500.000000 250.000000 -250.000000 0.125789 0.018786 0.366540 0.921668
30 1 -250.000000 250.000000 -250.000000 0.083516 0.235370 0.654541 0.713584
31 1 0.000000 250.000000 -250.000000 0.755183 0.267297 0.401733 0.443691
32 1 250.000000 250.000000 -250.000000 0.627933 0.009750 0.604544 0.490032
33 1 -500.000000 -500.000000 0.000000 0.028102 0.297763 0.449110 0.841931
34 1 -250.000000 -500.000000 0.000000 0.125882 0.352905 0.815481 0.441139
35 1 0.000000 -500.000000 0.000000 0.120586 0.396159 0.148686 0.898003
36 1 250.000000 -500.000000 0.000000 0.694101 0.517247 0.072097 0.495461
37 1 -500.000000 -250.000000 0.000000 0.516318 0.479716 0.506862 0.496365
38 1 -250.000000 -250.000000 0.000000 0.264576 0.348252 0.124415 0.890641
39 1 0.000000 -250.000000 0.000000 0.029704 0.738014 0.014246 0.673981
40 1 250.000000 -250.000000 0.000000 0.543212 0.741901 0.143272 0.366030
41 1 -500.000000 0.000000 0.000000 0.207267 0.278528 0.322474 0.880609
42 1 -250.000000 0.000000 0.000000 0.512420 0.164613 0.757064 0.370381
43 1 0.000000 0.000000 0.000000 0.170215 0.284943 0.677822 0.656042
44 1 250.000000 0.000000 0.000000 0.335113 0.511116 0.504086 0.610210
45 1 -500.000000 250.000000 0.000000 0.583816 0.717333 0.350708 0.146956
