ITEM: TIMESTEP
0
ITEM: NUMBER OF ATOMS
50
ITEM: BOX BOUNDS pp pp pp
-5.0000000000000000e+02 5.0000000000000000e+02
-5.0000000000000000e+02 5.0000000000000000e+02
-5.0000000000000000e+02 5.0000000000000000e+02
ITEM: ATOMS id type x y z c_q[1] c_q[2] c_q[3] c_q[4] 
1 1 -500 -500 -500 0.309077 0.325512 0.725787 0.521293 
2 1 -250 -500 -500 0.294727 0.589317 0.670455 0.341075 
3 1 0 -500 -500 0.205731 0.761328 0.158917 0.59397 
4 1 250 -500 -500 0.568342 0.353707 0.489856 0.558498 
5 1 -500 -250 -500 0.008746 0.535725 0.149732 0.830965 
6 1 -250 -250 -500 0.350137 0.495595 0.794816 0.007549 
7 1 0 -250 -500 0.182045 0.759136 0.329054 0.531315 
8 1 250 -250 -500 0.344369 0.218296 0.681808 0.607367 
9 1 -500 0 -500 0.631952 0.46432 0.044952 0.618888 
10 1 -250 0 -500 0.487677 0.368836 0.550287 0.568608 
11 1 0 0 -500 0.597142 0.499019 0.588776 0.218506 
12 1 250 0 -500 0.930896 0.346233 0.018407 0.114966 
13 1 -500 250 -500 0.43072 0.604413 0.243357 0.624454 
14 1 -250 250 -500 0.553274 0.334711 0.752443 0.125246 
15 1 0 250 -500 0.359569 0.616059 0.384928 0.585672 
16 1 250 250 -500 0.233569 0.710853 0.217929 0.62661 
17 1 -500 -500 -250 0.705525 0.091072 0.232785 0.663138 
18 1 -250 -500 -250 0.417584 0.494327 0.036665 0.761525 
19 1 0 -500 -250 0.373274 0.685566 0.000509 0.625032 
20 1 250 -500 -250 0.762495 0.577421 0.27037 0.109941 
21 1 -500 -250 -250 0.706962 0.246968 0.540944 0.382873 
22 1 -250 -250 -250 0.619433 0.439963 0.337082 0.555978 
23 1 0 -250 -250 0.713715 0.477707 0.492461 0.141032 
24 1 250 -250 -250 0.920215 0.341996 0.149941 0.117305 
25 1 -500 0 -250 0.708337 0.658079 0.24142 0.083108 
26 1 -250 0 -250 0.137483 0.844472 0.468246 0.220705 
27 1 0 0 -250 0.625432 0.573156 0.37932 0.369382 
28 1 250 0 -250 0.532609 0.707674 0.46193 0.046328 
29 1 -500 250 -250 0.224326 0.892271 0.299726 0.252379 
30 1 -250 250 -250 0.240142 0.71287 0.570554 0.32957 
31 1 0 250 -250 0.122953 0.046937 0.984415 0.116643 
32 1 250 250 -250 0.590137 0.259221 0.343083 0.683255 
33 1 -500 -500 0 0.576401 0.262869 0.695863 0.338285 
34 1 -250 -500 0 0.382037 0.737625 0.063834 0.553066 
35 1 0 -500 0 0.610519 0.156049 0.593727 0.500403 
36 1 250 -500 0 0.294161 0.735833 0.160835 0.588346 
37 1 -500 -250 0 0.069781 0.799094 0.563512 0.197572 
38 1 -250 -250 0 0.426691 0.882379 0.171132 0.100278 
39 1 0 -250 0 0.155448 0.508159 0.114041 0.839408 
40 1 250 -250 0 0.273998 0.669886 0.689824 0.017923 
41 1 -500 0 0 0.060721 0.622995 0.522608 0.578853 
42 1 -250 0 0 0.015979 0.803525 0.582206 0.122997 
43 1 0 0 0 0.71635 0.389222 0.557945 0.155068 
44 1 250 0 0 0.063413 0.337566 0.874212 0.343194 
45 1 -500 250 0 0.685558 0.345492 0.615134 0.1796 
46 1 -250 250 0 0.073338 0.722166 0.214882 0.653394 
47 1 0 250 0 0.505853 0.028008 0.507578 0.696916 
48 1 250 250 0 0.10461 0.359286 0.926068 0.048675 
49 1 -500 -500 250 0.786898 0.232966 0.055006 0.568764 
50 1 -250 -500 250 0.304834 0.585474 0.645023 0.385022 
ITEM: TIMESTEP
10000
ITEM: NUMBER OF ATOMS
50
ITEM: BOX BOUNDS pp pp pp
-5.0000000000000000e+02 5.0000000000000000e+02
-5.0000000000000000e+02 5.0000000000000000e+02
-5.0000000000000000e+02 5.0000000000000000e+02
ITEM: ATOMS id type x y z c_q[1] c_q[2] c_q[3] c_q[4] 
1 1 500.069 -498.794 -497.859 0.289186 0.294117 0.736242 0.536483 
6 1 -251.659 -248.201 -498.12 0.345539 0.471908 0.810777 -0.0233518 
8 1 251.209 -250.272 -497.954 0.314785 0.269224 0.668575 0.617605 
10 1 -244.726 1.36908 -497.028 0.506353 0.411888 0.56349 0.506394 
11 1 -6.29254 0.916898 -499.643 0.612042 0.463519 0.605171 0.210529 
9 1 497.097 2.05612 499.588 0.643293 0.459172 0.0297169 0.611926 
14 1 -251.858 247.519 -496.008 0.573182 0.297323 0.742898 0.176532 
15 1 -3.07058 249.615 -494.396 0.335518 0.581526 0.402851 0.622065 
2 1 -252.424 497.339 -497.488 0.287902 0.569396 0.683333 0.354903 
4 1 251.52 496.214 -497.009 0.601423 0.382206 0.397498 0.578103 
19 1 -7.10192 500.251 -250.663 0.391029 0.668572 0.0636953 0.629326 
20 1 253.448 -494.177 -251.523 0.726133 0.598874 0.312785 0.127461 
17 1 498.664 -495.109 -253.509 0.719372 0.0304922 0.215008 0.659808 
21 1 -499.36 -248.003 -254.006 0.699275 0.221275 0.5347 0.419699 
22 1 -250.972 -245.949 -243.849 0.629672 0.453293 0.329003 0.538326 
23 1 -2.92777 -254.24 -255.718 0.718724 0.455828 0.498434 0.164989 
24 1 252.646 -249.748 -249.144 0.908019 0.360814 0.167869 0.130903 
26 1 -247.346 -2.94842 -245.246 0.12797 0.839198 0.461872 0.256993 
28 1 248.963 -3.79481 -256.145 0.585468 0.666614 0.460889 -0.0208526 
25 1 498.302 1.68128 -251.248 0.734331 0.639714 0.208158 0.0905241 
27 1 3.52784 3.78016 -248.121 0.61154 0.587818 0.37599 0.372988 
30 1 -249.956 254.239 -253.772 0.224364 0.697588 0.576413 0.361634 
31 1 1.41511 246.724 -252.317 0.122352 -0.00546576 0.986701 0.106865 
32 1 248.054 254.211 -253.351 0.609103 0.272114 0.351312 0.656907 
29 1 499.486 249.478 -244.799 0.224502 0.904246 0.279149 0.232411 
18 1 -249.515 497.008 -248.756 0.430539 0.475572 0.0424396 0.765941 
38 1 -250.553 -254.527 -2.03303 0.407352 0.887215 0.171068 0.132854 
41 1 -497.104 3.92433 -4.60477 0.0349685 0.622523 0.531358 0.573499 
43 1 -3.48193 5.95781 -1.66489 0.75025 0.361392 0.514804 0.203709 
44 1 250.527 2.22804 -8.33137 0.0922597 0.328131 0.848044 0.405758 
45 1 -499.37 252.611 -0.733986 0.66469 0.365446 0.619211 0.203013 
46 1 -251.136 253.909 0.00722804 0.0300723 0.754489 0.201016 0.624047 
35 1 1.79104 495.33 -1.85859 0.607206 0.194687 0.602607 0.479857 
33 1 495.108 493.341 -2.59958 0.556 0.23075 0.724971 0.334717 
36 1 248.987 -498.599 5.48484 0.322761 0.749084 0.102015 0.569466 
37 1 -496.839 -251.117 1.27375 0.0698244 0.827781 0.52603 0.182198 
39 1 -2.87123 -250.004 6.29614 0.150386 0.514929 0.0330926 0.84329 
40 1 253.407 -250.183 2.53752 0.264621 0.717975 0.643807 0.000570543 
42 1 -244.393 4.10816 2.7183 -0.0249492 0.78947 0.605387 0.0980893 
47 1 -3.32618 251.205 -0.160047 0.484905 0.0581229 0.522743 0.698734 
48 1 250.039 244.632 4.27157 0.0390461 0.354573 0.934053 0.0172639 
34 1 -248.993 499.044 1.24399 0.404576 0.740362 0.105299 0.526397 
49 1 -496.883 -495.556 254.824 0.746021 0.224265 0.0385855 0.625834 
50 1 -253.424 -499.722 249.336 0.276603 0.580866 0.683182 0.345468 
3 1 1.65488 -491.687 498.073 0.238504 0.766097 0.192283 0.565012 
7 1 1.40027 -248.25 499.54 0.194064 0.738623 0.298992 0.572171 
5 1 499.14 -252.066 497.633 -0.0106027 0.537381 0.161687 0.827627 
12 1 253.038 -5.89904 499.064 0.910684 0.408021 -0.0185591 0.0618775 
16 1 252.957 252.874 495.792 0.218814 0.699405 0.20285 0.649466 
13 1 497.208 245.308 492.73 0.440308 0.576175 0.279161 0.62946 
ITEM: TIMESTEP
20000
ITEM: NUMBER OF ATOMS
50
ITEM: BOX BOUNDS pp pp pp
-5.0000000000000000e+02 5.0000000000000000e+02
-5.0000000000000000e+02 5.0000000000000000e+02
-5.0000000000000000e+02 5.0000000000000000e+02
ITEM: ATOMS id type x y z c_q[1] c_q[2] c_q[3] c_q[4] 
6 1 -252.42 -251.797 -496.513 0.310533 0.475342 0.822322 -0.0374854 
7 1 4.84916 -252.687 -496.713 0.147054 0.763479 0.257238 0.57385 
8 1 249.796 -255.456 -493.98 0.305011 0.26647 0.651238 0.641756 
10 1 -243.441 -3.3944 -492.449 0.467335 0.420021 0.60992 0.482886 
11 1 -10.3811 2.77837 -496.792 0.645022 0.474177 0.565428 0.19848 
14 1 -256.453 243.229 -497.864 0.572978 0.337573 0.730951 0.153137 
15 1 -0.368389 248.897 -497.379 0.348179 0.571879 0.379796 0.638342 
2 1 -249.615 494.944 -492.195 0.336192 0.52928 0.696946 0.347999 
4 1 248.444 493.221 -497.283 0.558719 0.404936 0.444402 0.571286 
19 1 -4.46699 -499.683 -255.596 0.403478 0.647638 0.0553563 0.643977 
20 1 255.215 -497.757 -246.265 0.736397 0.580625 0.302134 0.171199 
22 1 -255.585 -245.553 -242.248 0.64521 0.465142 0.285989 0.534376 
23 1 -8.62651 -250.148 -261.997 0.71563 0.460125 0.472834 0.229317 
24 1 250.819 -247.914 -244.733 0.918756 0.328007 0.162622 0.147827 
21 1 497.705 -247.992 -254.701 0.722742 0.214429 0.511566 0.412267 
26 1 -244.667 -0.870365 -243.699 0.132357 0.838148 0.480906 0.220722 
28 1 258.14 -9.65016 -257.686 0.558712 0.672242 0.485526 0.0140015 
27 1 2.33994 3.43251 -245.026 0.624802 0.592486 0.313854 0.400097 
25 1 497.334 2.60412 -249.591 0.737425 0.652872 0.167542 0.0434898 
30 1 -251.672 258.585 -257.485 0.192103 0.687521 0.572196 0.403735 
31 1 -1.48566 243.267 -256.608 0.137448 -0.0354523 0.975152 0.170089 
32 1 242.917 255.381 -254.568 0.627549 0.295485 0.377846 0.613272 
29 1 -499.874 254.613 -234.998 0.24465 0.90867 0.250284 0.227649 
18 1 -250.711 497.39 -247.285 0.445896 0.503878 0.0508618 0.738036 
17 1 493.675 -497.63 -253.284 0.714653 0.0777598 0.240891 0.652071 
37 1 -492.496 -245.924 1.0606 0.0354837 0.807233 0.556661 0.192991 
38 1 -251.482 -255.437 0.166904 0.434036 0.872424 0.17145 0.145238 
41 1 -498.437 0.920437 -12.4247 0.0488682 0.604841 0.555364 0.568638 
44 1 245.951 3.69819 -8.50891 0.058084 0.367804 0.837966 0.398947 
45 1 -496.823 247.075 -4.50741 0.671428 0.35253 0.617893 0.207642 
33 1 490.724 494.286 -2.67362 0.563273 0.325961 0.687193 0.32286 
39 1 -1.7935 -253.302 9.8478 0.145015 0.510281 0.0474076 0.846367 
40 1 248.35 -250.995 5.53697 0.292506 0.696861 0.654394 -0.0243783 
42 1 -237.834 6.29636 1.08429 -0.0543537 0.786909 0.599628 0.135156 
43 1 3.20737 5.8738 3.82264 0.769561 0.398432 0.460541 0.192169 
46 1 -251.34 252.489 4.18319 0.00944821 0.732792 0.229752 0.640422 
47 1 -0.399951 252.934 0.324365 0.517017 0.0143221 0.500834 0.694013 
48 1 255.201 243.308 4.73786 0.0300461 0.358979 0.93066 0.0640517 
34 1 -245.855 498.833 5.34291 0.401403 0.743857 0.118358 0.521099 
35 1 2.41778 496.023 1.83709 0.622906 0.167949 0.614064 0.454651 
36 1 252.168 498.516 11.2333 0.339901 0.722479 0.105744 0.592714 
49 1 -493.225 -496.107 256.008 0.717708 0.250067 0.0418674 0.648543 
50 1 -255.752 498.969 247.304 0.261878 0.586947 0.692364 0.32794 
1 1 -496.262 -497.552 -499.958 0.31473 0.277107 0.728978 0.541063 
3 1 4.96766 -492.24 498.183 0.213247 0.749759 0.161701 0.605178 
5 1 -499.579 -253.652 489.075 -0.00569747 0.519801 0.160154 0.839122 
12 1 251.774 -5.80357 498.216 0.909331 0.412155 -0.0530363 0.0208061 
9 1 498.919 -2.15819 497.08 0.639263 0.456253 -0.0107275 0.618919 
16 1 250.654 250.475 497.512 0.160249 0.71695 0.20197 0.647697 
13 1 498.882 245.984 491.179 0.438653 0.577803 0.283232 0.627301 
ITEM: TIMESTEP
30000
ITEM: NUMBER OF ATOMS
50
ITEM: BOX BOUNDS pp pp pp
-5.0000000000000000e+02 5.0000000000000000e+02
-5.0000000000000000e+02 5.0000000000000000e+02
-5.0000000000000000e+02 5.0000000000000000e+02
ITEM: ATOMS id type x y z c_q[1] c_q[2] c_q[3] c_q[4] 
6 1 -247.524 -253.772 -496.962 0.323233 0.461058 0.826001 -0.0258541 
7 1 7.50961 -254.123 -498.557 0.157943 0.771833 0.27854 0.549311 
8 1 246.174 -255.654 -493.648 0.322228 0.21734 0.656043 0.646947 
10 1 -243.864 -8.05066 -492.868 0.467262 0.404435 0.589943 0.519678 
11 1 -9.06217 -3.23349 -498.184 0.635496 0.474446 0.555425 0.250098 
14 1 -261.862 247.925 -498.365 0.53203 0.372772 0.753111 0.103966 
2 1 -242.198 493.469 -488.505 0.352739 0.552534 0.67424 0.34012 
4 1 246.251 494.176 -499.488 0.568956 0.381221 0.424822 0.592018 
17 1 490.041 -497.414 -257.928 0.703897 0.0700288 0.278518 0.649656 
22 1 -255.076 -249.265 -243.74 0.645529 0.484412 0.235849 0.541306 
23 1 -4.75364 -250.237 -261.671 0.726686 0.504799 0.444858 0.138587 
24 1 251.456 -256.449 -244.289 0.913908 0.355702 0.159834 0.112703 
21 1 490.707 -249.679 -250.766 0.692029 0.248323 0.544278 0.403971 
27 1 4.75354 -2.01913 -252.923 0.605698 0.623605 0.303417 0.390108 
28 1 255.276 -11.602 -262.049 0.562993 0.638985 0.523923 0.015542 
25 1 490.266 -2.08703 -248.028 0.730271 0.660831 0.171943 0.0210287 
26 1 -244.081 3.84688 -245.406 0.174986 0.817271 0.506359 0.212247 
30 1 -246.76 259.071 -259.924 0.149124 0.691909 0.540906 0.454361 
31 1 -1.4167 246.662 -250.118 0.0407638 -0.00933996 0.99103 0.126926 
32 1 240.833 259.211 -263.962 0.582298 0.312599 0.388781 0.641919 
29 1 494.239 251.768 -234.907 0.255928 0.890534 0.297448 0.230162 
18 1 -245.397 499.514 -253.637 0.483022 0.495145 0.0518502 0.7203 
19 1 -4.2288 499.158 -257.875 0.401483 0.69687 0.0553826 0.591706 
20 1 255.574 497.566 -251.105 0.748608 0.584644 0.275943 0.147079 
37 1 -494.919 -248.874 -0.361728 0.0139059 0.805633 0.555472 0.205456 
44 1 242.691 -1.14409 -10.9917 0.0542569 0.314094 0.860941 0.396462 
43 1 -2.01185 2.59204 -0.555304 0.733129 0.387798 0.522974 0.196551 
41 1 -499.236 5.01549 -11.3677 0.0146161 0.615724 0.577005 0.536409 
45 1 497.561 249.739 -3.98159 0.672108 0.391938 0.591672 0.21114 
33 1 486.568 489.633 -2.3807 0.515296 0.353617 0.691718 0.361871 
34 1 -240.736 -497.624 3.74817 0.408659 0.716022 0.116674 0.553802 
38 1 -253.522 -250.922 2.07905 0.44507 0.859571 0.176284 0.178813 
39 1 -9.70396 -255.32 15.678 0.155856 0.505832 0.019524 0.848211 
40 1 246.936 -248.103 5.1498 0.274888 0.694358 0.664469 -0.0280115 
42 1 -237.936 7.07691 1.83695 -0.0535381 0.810269 0.558714 0.168633 
46 1 -244.047 247.347 1.57608 -0.00449655 0.742925 0.281466 0.607305 
47 1 2.43205 256.129 2.47515 0.517889 0.019126 0.497915 0.695346 
48 1 260.975 246.372 0.970944 0.0319925 0.343003 0.937317 0.0525515 
35 1 0.208342 496.928 3.50443 0.651146 0.215351 0.576123 0.444651 
36 1 247.09 497.247 15.9241 0.369041 0.697747 0.0682499 0.610163 
49 1 -497.629 -491.673 256.586 0.698506 0.264064 0.051902 0.663073 
50 1 -253.511 493.605 250.923 0.308554 0.567415 0.686696 0.333592 
1 1 -496.496 -499.443 499.227 0.330092 0.264015 0.753004 0.504302 
3 1 5.233 -494.988 499.664 0.249015 0.727458 0.127121 0.626607 
5 1 -499.235 -250.549 491.788 -0.00187582 0.574591 0.130882 0.807906 
12 1 251.963 -4.59136 496.655 0.899699 0.433902 -0.044198 0.0178147 
9 1 -498.681 -0.536779 499.624 0.656552 0.461103 -0.0280777 0.596267 
15 1 0.554624 245.545 497.304 0.335679 0.580863 0.420566 0.610772 
16 1 245.88 250.41 495.793 0.183838 0.708809 0.179685 0.656891 
13 1 497.954 248.47 486.681 0.446702 0.607881 0.26659 0.59989 
ITEM: TIMESTEP
40000
ITEM: NUMBER OF ATOMS
50
ITEM: BOX BOUNDS pp pp pp
-5.0000000000000000e+02 5.0000000000000000e+02
-5.0000000000000000e+02 5.0000000000000000e+02
-5.0000000000000000e+02 5.0000000000000000e+02
ITEM: ATOMS id type x y z c_q[1] c_q[2] c_q[3] c_q[4] 
6 1 -247.092 -248.842 -497.158 0.326485 0.4797 0.813398 -0.0409909 
7 1 11.2825 -256.246 -494.641 0.152741 0.768831 0.255079 0.56613 
8 1 248.773 -256.036 -493.99 0.34454 0.215586 0.660279 0.631543 
10 1 -241.48 -8.81093 -493.305 0.471974 0.406354 0.5532 0.553251 
11 1 -5.4262 -2.53614 -498.162 0.665935 0.437171 0.555853 0.237569 
14 1 -264.756 254.068 -499.66 0.544199 0.417056 0.712207 0.150573 
2 1 -245.884 495.853 -484.573 0.322829 0.55622 0.691373 0.329247 
4 1 246.341 492.606 -497.593 0.596891 0.377996 0.432939 0.559825 
19 1 -4.69722 -497.633 -257.204 0.35 0.71396 0.0500158 0.604367 
22 1 -253.707 -247.52 -245.188 0.61887 0.460399 0.316412 0.552192 
23 1 -4.61039 -246.465 -261.091 0.717113 0.518958 0.451577 0.111842 
24 1 252.241 -252.411 -242.643 0.900607 0.365182 0.202545 0.120516 
21 1 494.508 -251.454 -253.636 0.629831 0.24229 0.590702 0.442356 
27 1 7.53228 -2.17743 -252.504 0.623924 0.584594 0.319684 0.408375 
28 1 253.454 -13.0455 -268.174 0.558974 0.632425 0.536201 0.00865497 
25 1 497.226 -4.18779 -253.381 0.718699 0.677408 0.156679 -0.00642226 
26 1 -242.685 5.4132 -241.311 0.118411 0.823287 0.514902 0.207492 
30 1 -248.279 259.758 -260.181 0.189297 0.711154 0.540159 0.408235 
31 1 0.31417 251.818 -256.914 0.0850344 -0.0342971 0.987993 0.124346 
32 1 237.348 260.756 -262.471 0.594046 0.282184 0.402239 0.636934 
29 1 492.986 253.514 -232.9 0.253054 0.896119 0.280156 0.233338 
18 1 -247.565 497.806 -257.172 0.520183 0.510132 0.00763383 0.684921 
20 1 252.347 498.519 -254.973 0.76162 0.59488 0.237869 0.0973156 
17 1 491.85 496.512 -257.777 0.703848 0.0572738 0.238582 0.666631 
40 1 245.412 -248.929 -1.30084 0.281236 0.698985 0.652288 -0.0827419 
44 1 243.578 2.47713 -12.7789 0.0668463 0.312103 0.849843 0.419392 
41 1 498.986 6.01243 -7.82795 -0.0382648 0.604242 0.585553 0.539031 
48 1 263.969 241.951 -1.80933 0.0132532 0.352834 0.935087 0.0307362 
45 1 497.176 249.332 -1.77479 0.642456 0.420977 0.614928 0.178586 
33 1 484.008 493.6 -4.54651 0.521708 0.371757 0.664232 0.385246 
35 1 6.18984 499.557 2.35615 0.663514 0.214568 0.571506 0.43254 
37 1 -489.78 -249.181 1.45761 0.0021341 0.805939 0.544556 0.2322 
38 1 -254.102 -249.198 2.55073 0.443342 0.867727 0.166043 0.151421 
39 1 -9.27559 -256.269 21.1849 0.164097 0.531057 0.0395016 0.830355 
43 1 -1.74938 -0.315776 7.5897 0.733875 0.372525 0.52842 0.208385 
42 1 -237.897 13.0203 3.65307 -0.0318016 0.801197 0.57332 0.168455 
46 1 -247.616 250.637 3.37532 -0.0185098 0.739761 0.322493 0.590262 
47 1 -1.6812 258.103 4.82319 0.532739 0.0119843 0.510369 0.674959 
34 1 -242.848 499.684 5.34534 0.407507 0.688927 0.147377 0.581031 
36 1 246.516 497.654 10.2732 0.369982 0.6847 0.0563141 0.625402 
49 1 -492.242 -495.031 258.885 0.716427 0.252927 0.0513398 0.64817 
50 1 -251.173 493.915 250.1 0.277958 0.546131 0.698594 0.369386 
3 1 2.69441 -495.295 -499.151 0.233683 0.740071 0.111529 0.620684 
1 1 498.986 -496.915 499.537 0.354344 0.292917 0.741031 0.4894 
5 1 498.116 -257.429 489.559 0.0292655 0.610654 0.104511 0.784425 
9 1 -496.619 -3.00484 497.477 0.667669 0.434537 -0.0660899 0.600856 
12 1 255.079 -10.3853 497.598 0.900935 0.426054 -0.0724823 0.0392585 
15 1 -2.85063 238.868 495.656 0.367764 0.581627 0.395106 0.608564 
16 1 238.3 256.436 498.796 0.168538 0.688332 0.17186 0.684293 
13 1 497.775 249.573 484.91 0.489791 0.573949 0.244333 0.609088 
ITEM: TIMESTEP
50000
ITEM: NUMBER OF ATOMS
50
ITEM: BOX BOUNDS pp pp pp
-5.0000000000000000e+02 5.0000000000000000e+02
-5.0000000000000000e+02 5.0000000000000000e+02
-5.0000000000000000e+02 5.0000000000000000e+02
ITEM: ATOMS id type x y z c_q[1] c_q[2] c_q[3] c_q[4] 
3 1 3.20866 -498.1 -497.658 0.21417 0.748291 0.107815 0.61852 
1 1 496.75 -489.136 -495.393 0.409874 0.307815 0.707081 0.487124 
6 1 -239.825 -246.949 -499.207 0.343234 0.483881 0.79937 -0.0951665 
7 1 11.7733 -263.162 -494.752 0.188454 0.719217 0.266636 0.613284 
8 1 248.055 -257.226 -493.56 0.332127 0.28998 0.6674 0.60015 
10 1 -241.956 -8.26139 -492.417 0.460715 0.43633 0.543062 0.549947 
11 1 -6.32007 -2.67187 -499.865 0.667822 0.446768 0.535359 0.260388 
2 1 -244.051 495.473 -486.688 0.33647 0.531704 0.70489 0.327429 
4 1 237.914 493.741 -496.111 0.567931 0.3932 0.428626 0.582347 
19 1 -5.35347 -491.449 -258.171 0.324191 0.736272 0.0346193 0.592963 
22 1 -252.495 -252.214 -242.612 0.646929 0.438117 0.271628 0.561921 
23 1 -8.06512 -242.826 -253.238 0.707463 0.530173 0.447544 0.134599 
24 1 253.742 -257.928 -242.506 0.89436 0.392807 0.167008 0.133911 
21 1 490.111 -250.601 -254.129 0.639442 0.239544 0.582912 0.440393 
27 1 9.1403 -3.59676 -255.121 0.596149 0.631001 0.340614 0.361146 
28 1 249.985 -15.0303 -265.209 0.562458 0.621395 0.545126 -0.0186425 
25 1 499.257 -7.34687 -250.457 0.708758 0.676248 0.200109 0.0175044 
26 1 -239.659 4.32463 -241.106 0.124242 0.827995 0.498873 0.223862 
30 1 -248.884 260.582 -261.723 0.19084 0.706136 0.564083 0.383095 
31 1 -3.29455 254.53 -255.216 0.0643381 -0.0708505 0.986845 0.130296 
32 1 235.374 262.969 -254.866 0.598842 0.288391 0.385246 0.64016 
29 1 486.976 248.871 -225.209 0.245432 0.896334 0.263518 0.258663 
18 1 -251.958 493 -252.584 0.545677 0.506417 -0.0273524 0.667106 
20 1 248.29 497.023 -258.026 0.758799 0.585046 0.26825 0.099936 
17 1 491.741 495.48 -259.739 0.687917 0.0866909 0.297393 0.656363 
40 1 240.704 -250.771 -3.69424 0.290826 0.70345 0.648223 -0.0196604 
41 1 -497.096 4.85486 -7.24446 -0.0408559 0.613166 0.579291 0.535519 
44 1 248.361 1.94924 -10.7665 0.0754003 0.280229 0.861884 0.415863 
48 1 268.537 252.535 -4.66022 0.0327174 0.37476 0.92454 0.0609037 
45 1 500.077 247.876 -0.34811 0.667859 0.391162 0.604727 0.187785 
33 1 482.458 496.484 -9.5902 0.536008 0.36697 0.668126 0.362816 
35 1 4.17381 -497.494 2.19135 0.659867 0.250481 0.581718 0.404276 
36 1 246.471 -496.24 7.60723 0.351201 0.703768 0.0391517 0.616308 
37 1 -489.179 -248.562 4.21031 0.00210225 0.822592 0.528804 0.209058 
38 1 -253.492 -246.049 1.42247 0.443874 0.876784 0.142301 0.118219 
39 1 -9.12058 -252.711 27.7193 0.194376 0.485346 0.0589372 0.850402 
42 1 -239.538 13.0151 0.281455 -0.0344775 0.76024 0.608761 0.224179 
43 1 0.223481 5.09481 8.9183 0.730541 0.330645 0.555481 0.220055 
46 1 -245.427 252.645 4.67692 -0.0203806 0.73903 0.33551 0.583826 
47 1 2.87284 260.5 4.61786 0.520685 0.00278794 0.518852 0.677991 
34 1 -238.933 495.075 5.44573 0.413156 0.695606 0.125446 0.574193 
49 1 -492.631 499.254 257.549 0.692514 0.284072 0.0593873 0.660455 
50 1 -255.514 494.389 249.71 0.247926 0.515558 0.716964 0.398365 
5 1 491.342 -258.974 490.885 0.031715 0.608843 0.124603 0.782801 
9 1 -496.404 -3.3803 498.789 0.687522 0.420371 -0.0735354 0.587532 
12 1 261.07 -16.8669 498.073 0.900274 0.424649 -0.0534604 0.0795134 
14 1 -263.728 249.024 500.226 0.567827 0.384867 0.701299 0.193984 
15 1 3.90293 233.771 -499.509 0.375022 0.535983 0.433903 0.619524 
16 1 236.78 253.788 496.402 0.190536 0.653543 0.146267 0.717763 
13 1 498.84 250.49 485.725 0.532065 0.57468 0.211364 0.584787 
ITEM: TIMESTEP
60000
ITEM: NUMBER OF ATOMS
50
ITEM: BOX BOUNDS pp pp pp
-5.0000000000000000e+02 5.0000000000000000e+02
-5.0000000000000000e+02 5.0000000000000000e+02
-5.0000000000000000e+02 5.0000000000000000e+02
ITEM: ATOMS id type x y z c_q[1] c_q[2] c_q[3] c_q[4] 
3 1 -3.43415 -497.146 -494.937 0.231425 0.751737 0.106211 0.60832 
1 1 497.593 -489.964 -493.7 0.382533 0.313516 0.741144 0.453962 
7 1 9.44906 -270.484 -496.935 0.231592 0.747615 0.21552 0.583941 
8 1 244.983 -260.648 -493.13 0.297824 0.30184 0.706408 0.566729 
10 1 -242.666 -10.8722 -491.273 0.42793 0.442013 0.556394 0.558503 
11 1 -10.3876 -4.08579 499.916 0.631617 0.479613 0.554041 0.25312 
14 1 -266.451 244.998 -495.513 0.60263 0.356113 0.687315 0.193955 
2 1 -242.26 489.106 -488.003 0.370244 0.543268 0.675894 0.333085 
4 1 236.136 497.793 -490.159 0.559721 0.369076 0.45262 0.587904 
19 1 -9.70259 -488.561 -262.29 0.333362 0.772821 0.0595309 0.536725 
22 1 -254.184 -252.648 -243.826 0.630885 0.436691 0.285946 0.574039 
23 1 -11.6375 -245.11 -260.23 0.680597 0.563609 0.44111 0.156697 
24 1 258.728 -258.932 -242.247 0.885651 0.41585 0.193593 0.0722046 
21 1 486.11 -249.326 -256.089 0.692626 0.221529 0.556679 0.401625 
27 1 5.49452 -3.27939 -251.802 0.568539 0.629001 0.379922 0.369838 
28 1 250.482 -12.8658 -267.351 0.504315 0.642368 0.573476 -0.0644592 
25 1 -499.742 -5.81943 -250.878 0.695171 0.693825 0.18644 0.0241767 
26 1 -234.618 -0.699543 -240.895 0.135528 0.827108 0.514404 0.181421 
30 1 -248.408 253.38 -260.294 0.194703 0.675402 0.597297 0.38621 
31 1 -4.11307 257.597 -251.815 0.0593626 -0.0738991 0.989705 0.10723 
32 1 234.758 265.904 -252.56 0.592302 0.282413 0.38705 0.647776 
29 1 490.461 255.038 -226.105 0.240588 0.89928 0.266571 0.249706 
18 1 -251.844 492.366 -248.76 0.5638 0.492228 -0.061615 0.660336 
20 1 247.104 496.722 -257.504 0.764118 0.574654 0.25424 0.145801 
17 1 490.88 498.177 -259.379 0.678933 0.0924023 0.310341 0.658939 
33 1 486.01 -497.319 -9.91908 0.497427 0.374226 0.683087 0.381986 
37 1 -490.066 -248.64 -3.28838 0.00109606 0.806459 0.546529 0.225675 
38 1 -254.956 -247.975 -4.62705 0.431814 0.882134 0.164693 0.0908469 
40 1 243.205 -250.867 -5.70211 0.353788 0.702109 0.617022 0.0340819 
41 1 -498.713 6.95219 -9.24718 -0.0454396 0.633934 0.572946 0.517489 
44 1 245.72 0.273705 -12.9493 0.0925004 0.257087 0.86062 0.429747 
48 1 265.475 250.481 -5.47 0.00148948 0.378252 0.923145 0.0687554 
35 1 7.45744 -494.239 6.72404 0.653424 0.238246 0.594258 0.403897 
36 1 242.756 -496.547 6.13211 0.361837 0.690689 0.0527141 0.623894 
39 1 -9.15655 -255.612 25.1685 0.193668 0.44999 0.0774373 0.868335 
42 1 -239.555 10.5529 0.799703 -0.0128309 0.792118 0.581313 0.18563 
43 1 10.174 11.6423 7.82507 0.742138 0.352185 0.531778 0.205932 
45 1 -497.34 246.106 2.18272 0.671828 0.399944 0.593981 0.189415 
46 1 -246.435 254.67 3.45766 0.00157928 0.753659 0.319506 0.574379 
47 1 6.65417 258.755 6.86458 0.584864 -0.059759 0.481753 0.649828 
34 1 -235.033 491.415 9.33345 0.433909 0.705578 0.1487 0.540158 
49 1 -493.343 497.904 253.011 0.72396 0.268192 0.060849 0.632655 
50 1 -251.968 494.407 252.586 0.254066 0.49782 0.720514 0.41047 
6 1 -238.354 -249.096 499.646 0.331042 0.463061 0.819892 -0.0613303 
5 1 484.957 -254.431 489.853 0.0010719 0.63431 0.0852862 0.768359 
12 1 264.045 -19.839 495.845 0.923559 0.370844 -0.0374401 0.0900644 
9 1 -495.192 1.77027 499.77 0.719624 0.439045 -0.0911455 0.530163 
13 1 -498.532 256.443 482.191 0.530234 0.599672 0.200641 0.56479 
15 1 -6.42016 231.02 497.891 0.403293 0.495436 0.418575 0.645517 
16 1 231.504 254.01 492.905 0.222379 0.648713 0.149414 0.712316 
ITEM: TIMESTEP
70000
ITEM: NUMBER OF ATOMS
50
ITEM: BOX BOUNDS pp pp pp
-5.0000000000000000e+02 5.0000000000000000e+02
-5.0000000000000000e+02 5.0000000000000000e+02
-5.0000000000000000e+02 5.0000000000000000e+02
ITEM: ATOMS id type x y z c_q[1] c_q[2] c_q[3] c_q[4] 
1 1 497.582 -495.994 -493.301 0.372167 0.308634 0.748543 0.453784 
6 1 -237.36 -240.954 -500.187 0.31102 0.432145 0.84169 -0.0898598 
7 1 8.60354 -268.309 -491.893 0.257282 0.746585 0.221644 0.572093 
8 1 246.088 -264.487 -492.523 0.278379 0.375773 0.703902 0.534623 
10 1 -244.163 -17.6378 -492.674 0.445471 0.450517 0.533898 0.559949 
11 1 -15.4053 -0.623011 -493.607 0.641899 0.467454 0.553166 0.251911 
14 1 -272.305 250.798 -494.976 0.618551 0.353764 0.678545 0.178389 
2 1 -246.278 492.838 -486.371 0.343026 0.548063 0.696103 0.312092 
3 1 -3.3547 498.749 -492.104 0.266665 0.768856 0.0980546 0.572831 
4 1 239.426 493.061 -490.14 0.564389 0.353653 0.438119 0.603694 
19 1 -10.4842 -484.389 -263.776 0.347434 0.766033 0.0164674 0.540565 
17 1 497.607 -496.864 -255.328 0.720224 0.0751596 0.279405 0.630524 
22 1 -250.218 -252.565 -245.931 0.611234 0.451682 0.313766 0.569146 
23 1 -17.9766 -251.342 -264.961 0.667027 0.554523 0.469177 0.165686 
24 1 260.77 -261.871 -247.475 0.878168 0.440416 0.159449 0.0971131 
21 1 489.016 -251.748 -257.445 0.690736 0.222142 0.544429 0.420873 
27 1 8.85514 -2.24213 -252.946 0.578114 0.601678 0.437329 0.335427 
28 1 247.766 -11.3739 -268.629 0.467106 0.630656 0.618647 -0.0368849 
25 1 493.433 -8.43272 -251.015 0.704808 0.694472 0.143281 0.0206082 
26 1 -241.121 0.886838 -239.164 0.208996 0.808544 0.516882 0.188174 
30 1 -246.696 254.909 -260.73 0.157447 0.687248 0.598258 0.380773 
31 1 -3.43683 259.466 -251.03 0.0245586 -0.0885171 0.992272 0.0834088 
32 1 232.791 268.047 -256.56 0.573783 0.318046 0.412849 0.631803 
29 1 490.783 254.337 -218.862 0.25038 0.917983 0.255342 0.171517 
18 1 -252.498 488.627 -249.071 0.556078 0.525703 -0.0651206 0.640448 
20 1 247.863 -499.684 -255.522 0.75228 0.579892 0.284344 0.130186 
37 1 -493.465 -244.136 -7.53575 0.00753506 0.809919 0.549052 0.206195 
38 1 -249.873 -246.061 -4.49365 0.38993 0.900853 0.180487 0.0619862 
40 1 241.856 -249.76 -0.84012 0.34584 0.694627 0.630784 0.000537987 
44 1 247.922 0.476806 -13.7565 0.0643531 0.260504 0.852209 0.44915 
41 1 -498.439 8.76881 -13.438 -0.0258064 0.607542 0.587551 0.533864 
46 1 -244.619 253.603 -3.55682 0.0154208 0.759905 0.32592 0.562212 
48 1 264.118 254.384 0.274358 0.0105945 0.362837 0.929997 0.0578219 
33 1 486.037 497.367 -6.95098 0.46179 0.395105 0.705928 0.363741 
35 1 7.33179 -491.223 9.75829 0.666365 0.251822 0.568312 0.411783 
36 1 237.844 -493.514 4.43925 0.333474 0.734063 0.054346 0.589062 
39 1 -6.96337 -256.503 24.1259 0.169297 0.411563 0.0778834 0.892126 
42 1 -243.554 7.33959 3.94127 -0.00275184 0.810362 0.575947 0.107661 
43 1 6.08528 15.2087 6.6351 0.747866 0.368002 0.504713 0.2248 
45 1 -499.857 243.172 0.11858 0.648873 0.434087 0.569953 0.256292 
47 1 5.4875 261.075 11.6559 0.606917 -0.0444218 0.450448 0.65328 
34 1 -233.999 489.109 3.66935 0.419585 0.719602 0.18368 0.521903 
49 1 -495.648 -498.228 256.325 0.685016 0.309633 0.0580864 0.656892 
50 1 -251.646 491.998 251.561 0.291841 0.480874 0.707343 0.428083 
5 1 486.853 -253.369 488.185 -0.0362517 0.643438 0.0815007 0.760284 
9 1 -498.142 -2.56043 498.246 0.710232 0.476447 -0.111094 0.506188 
12 1 264.698 -20.3951 496.894 0.920387 0.373822 0.00634823 0.114478 
13 1 -498.757 256.568 485.88 0.542553 0.618093 0.2481 0.511902 
15 1 -7.78503 232.845 497.901 0.389888 0.546493 0.382267 0.634984 
16 1 230.595 253.602 494.443 0.246946 0.673803 0.138165 0.682582 
ITEM: TIMESTEP
80000
ITEM: NUMBER OF ATOMS
50
ITEM: BOX BOUNDS pp pp pp
-5.0000000000000000e+02 5.0000000000000000e+02
-5.0000000000000000e+02 5.0000000000000000e+02
-5.0000000000000000e+02 5.0000000000000000e+02
ITEM: ATOMS id type x y z c_q[1] c_q[2] c_q[3] c_q[4] 
1 1 494.585 -493.373 -493.826 0.419924 0.333161 0.716372 0.44663 
7 1 4.16793 -264.681 -492.095 0.303549 0.752212 0.181787 0.555868 
8 1 242.497 -264.613 -495.23 0.29764 0.345657 0.70933 0.537385 
10 1 -246.842 -20.2544 -495.25 0.408803 0.457655 0.517962 0.595942 
11 1 -12.4967 -0.865256 -492.673 0.643713 0.491836 0.542167 0.223128 
12 1 270.318 -17.1581 -497.564 0.924375 0.371216 0.0214792 0.0852494 
14 1 -274.542 248.675 -495.725 0.584218 0.384945 0.703722 0.123618 
15 1 -6.12927 239.126 -498.87 0.381427 0.539621 0.419429 0.622417 
2 1 -251.284 494.274 -488.776 0.357661 0.564451 0.681087 0.299324 
3 1 -3.33411 498.964 -494.379 0.285008 0.765988 0.0787887 0.57081 
4 1 236.768 492.358 -487.751 0.56342 0.330573 0.440812 0.615601 
17 1 499.896 -495.826 -252.83 0.72778 0.0679017 0.309646 0.608149 
19 1 -4.77381 -487.41 -261.833 0.374789 0.752821 0.0510154 0.538694 
20 1 251.121 -498.131 -257.753 0.756246 0.564838 0.28132 0.172943 
22 1 -241.375 -249.162 -242.883 0.607097 0.470957 0.287549 0.571794 
23 1 -16.6672 -251.563 -265.266 0.661085 0.584416 0.438585 0.170492 
24 1 260.697 -264.781 -248.96 0.868598 0.444915 0.177213 0.127214 
21 1 491.368 -250.22 -254.099 0.709177 0.191829 0.501558 0.456847 
28 1 253.558 -17.363 -271.708 0.480329 0.616887 0.623092 -0.0221616 