LAMMPS data file

55 atoms
55 ellipsoids
0 bonds
0 angles
0 dihedrals

1 atom types
0 bond types
0 angle types
0 dihedral types

-500.000000 500.000000 xlo xhi
-500.000000 500.000000 ylo yhi
-500.000000 500.000000 zlo zhi

Masses

1 203166.000000

Atoms

1 1 -500.000000 -500.000000 -500.000000 1 1.000000 3 0.000000
2 1 -250.000000 -500.000000 -500.000000 1 1.000000 4 0.000000
3 1 0.000000 -500.000000 -500.000000 1 1.000000 5 0.000000
4 1 250.000000 -500.000000 -500.000000 1 1.000000 6 0.000000
5 1 -500.000000 -250.000000 -500.000000 1 1.000000 7 0.000000
6 1 -250.000000 -250.000000 -500.000000 1 1.000000 8 0.000000
7 1 0.000000 -250.000000 -500.000000 1 1.000000 9 0.000000
8 1 250.000000 -250.000000 -500.000000 1 1.000000 10 0.000000
9 1 -500.000000 0.000000 -500.000000 1 1.000000 11 0.000000
10 1 -250.000000 0.000000 -500.000000 1 1.000000 12 0.000000
11 1 0.000000 0.000000 -500.000000 1 1.000000 13 0.000000
12 1 250.000000 0.000000 -500.000000 1 1.000000 14 0.000000
13 1 -500.000000 250.000000 -500.000000 1 1.000000 15 0.000000
14 1 -250.000000 250.000000 -500.000000 1 1.000000 16 0.000000
15 1 0.000000 250.000000 -500.000000 1 1.000000 17 0.000000
16 1 250.000000 250.000000 -500.000000 1 1.000000 18 0.000000
17 1 -500.000000 -500.000000 -250.000000 1 1.000000 19 0.000000
18 1 -250.000000 -500.000000 -250.000000 1 1.000000 20 0.000000
19 1 0.000000 -500.000000 -250.000000 1 1.000000 21 0.000000
20 1 250.000000 -500.000000 -250.000000 1 1.000000 22 0.000000
21 1 -500.000000 -250.000000 -250.000000 1 1.000000 23 0.000000
22 1 -250.000000 -250.000000 -250.000000 1 1.000000 24 0.000000
23 1 0.000000 -250.000000 -250.000000 1 1.000000 25 0.000000
24 1 250.000000 -250.000000 -250.000000 1 1.000000 26 0.000000
25 1 -500.000000 0.000000 -250.000000 1 1.000000 27 0.000000
26 1 -250.000000 0.000000 -250.000000 1 1.000000 28 0.000000
27 1 0.000000 0.000000 -250.000000 1 1.000000 29 0.000000
28 1 250.000000 0.000000 -250.000000 1 1.000000 30 0.000000
29 1 -500.000000 250.000000 -250.000000 1 1.000000 31 0.000000
30 1 -250.000000 250.000000 -250.000000 1 1.000000 32 0.000000
31 1 0.000000 250.000000 -250.000000 1 1.000000 33 0.000000
32 1 250.000000 250.000000 -250.000000 1 1.000000 34 0.000000
33 1 -500.000000 -500.000000 0.000000 1 1.000000 35 0.000000
34 1 -250.000000 -500.000000 0.000000 1 1.000000 36 0.000000
35 1 0.000000 -500.000000 0.000000 1 1.000000 37 0.000000
36 1 250.000000 -500.000000 0.000000 1 1.000000 38 0.000000
37 1 -500.000000 -250.000000 0.000000 1 1.000000 39 0.000000
38 1 -250.000000 -250.000000 0.000000 1 1.000000 40 0.000000
39 1 0.000000 -250.000000 0.000000 1 1.000000 41 0.000000
40 1 250.000000 -250.000000 0.000000 1 1.000000 42 0.000000
41 1 -500.000000 0.000000 0.000000 1 1.000000 43 0.000000
42 1 -250.000000 0.000000 0.000000 1 1.000000 44 0.000000
43 1 0.000000 0.000000 0.000000 1 1.000000 45 0.000000
44 1 250.000000 0.000000 0.000000 1 1.000000 46 0.000000
45 1 -500.000000 250.000000 0.000000 1 1.000000 47 0.000000
46 1 -250.000000 250.000000 0.000000 1 1.000000 48 0.000000
47 1 0.000000 250.000000 0.000000 1 1.000000 49 0.000000
48 1 250.000000 250.000000 0.000000 1 1.000000 50 0.000000
49 1 -500.000000 -500.000000 250.000000 1 1.000000 51 0.000000
50 1 -250.000000 -500.000000 250.000000 1 1.000000 52 0.000000
51 1 0.000000 -500.000000 250.000000 1 1.000000 53 0.000000
52 1 250.000000 -500.000000 250.000000 1 1.000000 54 0.000000
53 1 -500.000000 -250.000000 250.000000 1 1.000000 55 0.000000
54 1 -250.000000 -250.000000 250.000000 1 1.000000 56 0.000000
55 1 0.000000 -250.000000 250.000000 1 1.000000 57 0.000000

Ellipsoids

1 55.000000 110.000000 110.000000 0.606415 0.005502 0.665086 0.435765
2 55.000000 110.000000 110.000000 0.489973 0.159521 0.063447 0.854666
3 55.000000 110.000000 110.000000 0.777623 0.568973 0.267171 0.013840
4 55.000000 110.000000 110.000000 0.186048 0.002327 0.462784 0.866725
5 55.000000 110.000000 110.000000 0.234793 0.721543 0.550587 0.347997
6 55.000000 110.000000 110.000000 0.806135 0.563261 0.180012 0.021880
7 55.000000 110.000000 110.000000 0.450250 0.407952 0.668292 0.429226
8 55.000000 110.000000 110.000000 0.418225 0.902821 0.049355 0.086987
9 55.000000 110.000000 110.000000 0.454933 0.531329 0.270855 0.661334
10 55.000000 110.000000 110.000000 0.153903 0.415061 0.563659 0.697372
11 55.000000 110.000000 110.000000 0.483577 0.369983 0.305490 0.732080
12 55.000000 110.000000 110.000000 0.763206 0.018642 0.455321 0.458096
13 55.000000 110.000000 110.000000 0.763638 0.080537 0.452008 0.453937
14 55.000000 110.000000 110.000000 0.483217 0.781427 0.269776 0.288260
15 55.000000 110.000000 110.000000 0.478189 0.752370 0.430433 0.141428
16 55.000000 110.000000 110.000000 0.719983 0.153495 0.023604 0.676392
17 55.000000 110.000000 110.000000 0.456455 0.641240 0.017585 0.616564
18 55.000000 110.000000 110.000000 0.037434 0.668764 0.153012 0.726595
19 55.000000 110.000000 110.000000 0.660259 0.643674 0.333394 0.196443
20 55.000000 110.000000 110.000000 0.073236 0.634677 0.282689 0.715478
21 55.000000 110.000000 110.000000 0.131135 0.160579 0.864911 0.457108
22 55.000000 110.000000 110.000000 0.429514 0.215646 0.819073 0.313263
23 55.000000 110.000000 110.000000 0.242524 0.153173 0.212837 0.934035
24 55.000000 110.000000 110.000000 0.659006 0.167671 0.681967 0.269294
25 55.000000 110.000000 110.000000 0.199775 0.650266 0.521811 0.514740
26 55.000000 110.000000 110.000000 0.104186 0.301789 0.860634 0.396709
27 55.000000 110.000000 110.000000 0.391045 0.570317 0.572650 0.440334
28 55.000000 110.000000 110.000000 0.425791 0.625807 0.648745 0.078720
29 55.000000 110.000000 110.000000 0.313572 0.581438 0.122385 0.740692
30 55.000000 110.000000 110.000000 0.650040 0.521424 0.329825 0.443600
31 55.000000 110.000000 110.000000 0.677826 0.040243 0.289882 0.674463
32 55.000000 110.000000 110.000000 0.727812 0.172560 0.633640 0.197517
33 55.000000 110.000000 110.000000 0.271487 0.031127 0.652627 0.706685
34 55.000000 110.000000 110.000000 0.565241 0.206431 0.581357 0.547643
35 55.000000 110.000000 110.000000 0.278214 0.182347 0.375429 0.865101
36 55.000000 110.000000 110.000000 0.471265 0.064626 0.649574 0.593116
37 55.000000 110.000000 110.000000 0.601795 0.600230 0.233195 0.472426
38 55.000000 110.000000 110.000000 0.470357 0.690152 0.475218 0.276807
39 55.000000 110.000000 110.000000 0.101726 0.569300 0.122711 0.806530
40 55.000000 110.000000 110.000000 0.843263 0.208909 0.158542 0.469179
41 55.000000 110.000000 110.000000 0.562498 0.607055 0.074443 0.556362
42 55.000000 110.000000 110.000000 0.742441 0.658903 0.104038 0.061678
43 55.000000 110.000000 110.000000 0.581085 0.354909 0.052051 0.730528
44 55.000000 110.000000 110.000000 0.384610 0.659956 0.572804 0.297372
45 55.000000 110.000000 110.000000 0.401669 0.362371 0.777284 0.321214
46 55.000000 110.000000 110.000000 0.720169 0.675078 0.059996 0.148415
47 55.000000 110.000000 110.000000 0.000536 0.915406 0.393051 0.086846
48 55.000000 110.000000 110.000000 0.040771 0.764952 0.211719 0.606928
49 55.000000 110.000000 110.000000 0.700762 0.233302 0.479660 0.473740
50 55.000000 110.000000 110.000000 0.608959 0.346648 0.329464 0.632817
51 55.000000 110.000000 110.000000 0.684204 0.573612 0.203200 0.401926
52 55.000000 110.000000 110.000000 0.873989 0.123052 0.452344 0.128013
53 55.000000 110.000000 110.000000 0.155820 0.528979 0.575553 0.603855
54 55.000000 110.000000 110.000000 0.576921 0.747224 0.292500 0.152522
55 55.000000 110.000000 110.000000 0.050295 0.320067 0.599618 0.731769




