ITEM: TIMESTEP
0
ITEM: NUMBER OF ATOMS
55
ITEM: BOX BOUNDS pp pp pp
-5.0000000000000000e+02 5.0000000000000000e+02
-5.0000000000000000e+02 5.0000000000000000e+02
-5.0000000000000000e+02 5.0000000000000000e+02
ITEM: ATOMS id type x y z c_q[1] c_q[2] c_q[3] c_q[4] 
1 1 -500 -500 -500 0.606415 0.005502 0.665086 0.435765 
2 1 -250 -500 -500 0.489973 0.159521 0.063447 0.854666 
3 1 0 -500 -500 0.777623 0.568973 0.267171 0.01384 
4 1 250 -500 -500 0.186048 0.002327 0.462784 0.866725 
5 1 -500 -250 -500 0.234793 0.721543 0.550587 0.347997 
6 1 -250 -250 -500 0.806135 0.563261 0.180012 0.02188 
7 1 0 -250 -500 0.45025 0.407952 0.668292 0.429226 
8 1 250 -250 -500 0.418225 0.902821 0.049355 0.086987 
9 1 -500 0 -500 0.454933 0.531329 0.270855 0.661334 
10 1 -250 0 -500 0.153903 0.415061 0.563659 0.697372 
11 1 0 0 -500 0.483577 0.369983 0.30549 0.73208 
12 1 250 0 -500 0.763206 0.018642 0.455321 0.458096 
13 1 -500 250 -500 0.763638 0.080537 0.452008 0.453937 
14 1 -250 250 -500 0.483217 0.781427 0.269776 0.28826 
15 1 0 250 -500 0.478189 0.75237 0.430433 0.141428 
16 1 250 250 -500 0.719983 0.153495 0.023604 0.676392 
17 1 -500 -500 -250 0.456455 0.64124 0.017585 0.616564 
18 1 -250 -500 -250 0.037434 0.668764 0.153012 0.726595 
19 1 0 -500 -250 0.660259 0.643674 0.333394 0.196443 
20 1 250 -500 -250 0.073236 0.634677 0.282689 0.715478 
21 1 -500 -250 -250 0.131135 0.160579 0.864911 0.457108 
22 1 -250 -250 -250 0.429514 0.215646 0.819073 0.313263 
23 1 0 -250 -250 0.242524 0.153173 0.212837 0.934035 
24 1 250 -250 -250 0.659006 0.167671 0.681967 0.269294 
25 1 -500 0 -250 0.199775 0.650266 0.521811 0.51474 
26 1 -250 0 -250 0.104186 0.301789 0.860634 0.396709 
27 1 0 0 -250 0.391045 0.570317 0.57265 0.440334 
28 1 250 0 -250 0.425791 0.625807 0.648745 0.07872 
29 1 -500 250 -250 0.313572 0.581438 0.122385 0.740692 
30 1 -250 250 -250 0.65004 0.521424 0.329825 0.4436 
31 1 0 250 -250 0.677826 0.040243 0.289882 0.674463 
32 1 250 250 -250 0.727812 0.17256 0.63364 0.197517 
33 1 -500 -500 0 0.271487 0.031127 0.652627 0.706685 
34 1 -250 -500 0 0.565241 0.206431 0.581357 0.547643 
35 1 0 -500 0 0.278214 0.182347 0.375429 0.865101 
36 1 250 -500 0 0.471265 0.064626 0.649574 0.593116 
37 1 -500 -250 0 0.601795 0.60023 0.233195 0.472426 
38 1 -250 -250 0 0.470357 0.690152 0.475218 0.276807 
39 1 0 -250 0 0.101726 0.5693 0.122711 0.80653 
40 1 250 -250 0 0.843263 0.208909 0.158542 0.469179 
41 1 -500 0 0 0.562498 0.607055 0.074443 0.556362 
42 1 -250 0 0 0.742441 0.658903 0.104038 0.061678 
43 1 0 0 0 0.581085 0.354909 0.052051 0.730528 
44 1 250 0 0 0.38461 0.659956 0.572804 0.297372 
45 1 -500 250 0 0.401669 0.362371 0.777284 0.321214 
46 1 -250 250 0 0.720169 0.675078 0.059996 0.148415 
47 1 0 250 0 0.000536 0.915406 0.393051 0.086846 
48 1 250 250 0 0.040771 0.764952 0.211719 0.606928 
49 1 -500 -500 250 0.700762 0.233302 0.47966 0.47374 
50 1 -250 -500 250 0.608959 0.346648 0.329464 0.632817 
51 1 0 -500 250 0.684204 0.573612 0.2032 0.401926 
52 1 250 -500 250 0.873989 0.123052 0.452344 0.128013 
53 1 -500 -250 250 0.15582 0.528979 0.575553 0.603855 
54 1 -250 -250 250 0.576921 0.747224 0.2925 0.152522 
55 1 0 -250 250 0.050295 0.320067 0.599618 0.731769 
ITEM: TIMESTEP
10000
ITEM: NUMBER OF ATOMS
55
ITEM: BOX BOUNDS pp pp pp
-5.0000000000000000e+02 5.0000000000000000e+02
-5.0000000000000000e+02 5.0000000000000000e+02
-5.0000000000000000e+02 5.0000000000000000e+02
ITEM: ATOMS id type x y z c_q[1] c_q[2] c_q[3] c_q[4] 
1 1 498.372 -497.961 -496.592 0.638506 -0.0109243 0.655274 0.403493 
15 1 1.74039 248.323 -499.9 0.501033 0.744948 0.422715 0.123814 
16 1 244.36 247.917 -493.418 0.75627 0.07153 0.00228908 0.650334 
2 1 -255.724 498.051 -496.097 0.465356 0.118115 0.0700162 0.874408 
19 1 -2.73044 -493.584 -246.313 0.677062 0.661009 0.282341 0.157919 
20 1 252.519 -498.518 -245.675 0.0775211 0.648823 0.302125 0.694075 
22 1 -250.237 -255.725 -252.801 0.43724 0.199086 0.82814 0.28874 
23 1 -1.78258 -243.114 -251.48 0.240081 0.113846 0.166593 0.949551 
24 1 248.328 -248.37 -250.089 0.6515 0.190776 0.67195 0.296032 
21 1 497.514 -252.288 -256.842 0.143091 0.158629 0.853021 0.476148 
27 1 4.37843 -3.89119 -249.597 0.346878 0.591479 0.594502 0.419994 
28 1 251.226 -0.948422 -251.107 0.434042 0.607504 0.659964 0.0836333 
25 1 -493.999 2.46208 -249.723 0.202772 0.647342 0.499856 0.538494 
26 1 -250.771 1.21995 -255.91 0.0881909 0.342488 0.841429 0.408561 
29 1 499.594 253.76 -253.801 0.280734 0.621984 0.143149 0.716821 
30 1 -247.741 249.918 -249.98 0.658341 0.438456 0.325855 0.517843 
31 1 -0.475784 250.424 -245.704 0.651652 0.00622822 0.317019 0.689064 
32 1 249.815 251.35 -248.705 0.758692 0.197496 0.58987 0.193484 
17 1 -498.281 499.229 -249.232 0.440221 0.684342 -0.00151155 0.581273 
18 1 -250.603 497.407 -252.181 0.0581102 0.687588 0.19824 0.696094 
38 1 -251.494 -245.128 0.626808 0.520361 0.6321 0.488985 0.300945 
39 1 -3.30021 -244.287 -2.43218 0.101065 0.59804 0.111825 0.787165 
41 1 -493.661 4.69911 -1.81484 0.558497 0.590372 0.0817587 0.576938 
46 1 -250.145 253.178 -3.05616 0.742324 0.659857 0.0510327 0.104588 
47 1 2.02414 253.595 -4.47699 -0.00916826 0.913536 0.403075 0.0538456 
34 1 -253.346 -494.321 3.92618 0.564952 0.177283 0.570135 0.569514 
35 1 1.12864 -499.373 0.683428 0.290512 0.217538 0.402637 0.840335 
36 1 251.574 -496.422 4.07695 0.515779 0.0683456 0.662921 0.538364 
37 1 -497.408 -249.809 3.73627 0.597644 0.597062 0.212814 0.490968 
40 1 248.891 -244.115 2.80102 0.860387 0.225721 0.164204 0.426405 
44 1 252.015 -0.952578 2.4512 0.378228 0.683531 0.569136 0.25654 
42 1 -249.867 3.03114 1.32527 0.732456 0.66198 0.125795 0.0972964 
43 1 1.39809 2.47545 6.57557 0.600912 0.332114 0.0704933 0.723627 
45 1 -499.274 249.951 2.58853 0.386911 0.359329 0.801268 0.28134 
48 1 251.161 253.413 3.72414 0.00815076 0.790864 0.184385 0.583498 
33 1 -497.561 495.837 0.180834 0.245765 0.0782911 0.682767 0.683593 
51 1 3.89796 -496.957 251.85 0.691157 0.571167 0.184758 0.40241 
52 1 247.769 -499.279 251.246 0.850423 0.126961 0.500241 0.102078 
54 1 -252.65 -245.798 249.034 0.579294 0.747136 0.289762 0.149148 
55 1 3.10421 -252.954 249.401 0.0045617 0.249151 0.6176 0.745971 
53 1 499.502 -246.819 249.646 0.184743 0.499436 0.600311 0.596708 
50 1 -248.068 498.982 251.721 0.632593 0.329037 0.288136 0.63917 
49 1 499.447 499.733 249.841 0.674008 0.245975 0.493949 0.491146 
5 1 -494.341 -248.554 -499.717 0.273087 0.709121 0.542768 0.357733 
6 1 -251.653 -251.496 498.841 0.79597 0.562063 0.222443 -0.0321828 
7 1 0.857521 -252.565 497.915 0.438462 0.362413 0.690696 0.446482 
8 1 249.454 -253.896 497.122 0.391786 0.919378 0.0140929 0.0323872 
10 1 -246.023 -1.94371 498.597 0.195061 0.415126 0.552964 0.695595 
9 1 499.163 -1.52839 496.966 0.45037 0.567006 0.260997 0.638397 
11 1 0.328995 1.44462 497.894 0.458276 0.304009 0.33284 0.766015 
12 1 248.308 0.657595 497.138 0.76073 -0.006016 0.462409 0.455446 
14 1 -242.026 254.368 494.209 0.454329 0.806442 0.212021 0.313501 
13 1 495.992 252.45 496.449 0.747667 0.062122 0.473141 0.461815 
3 1 2.02337 499.36 498.074 0.753633 0.618789 0.221434 0.0101934 
4 1 251.63 494.264 498.64 0.232783 0.0319259 0.484137 0.842855 
ITEM: TIMESTEP
20000
ITEM: NUMBER OF ATOMS
55
ITEM: BOX BOUNDS pp pp pp
-5.0000000000000000e+02 5.0000000000000000e+02
-5.0000000000000000e+02 5.0000000000000000e+02
-5.0000000000000000e+02 5.0000000000000000e+02
ITEM: ATOMS id type x y z c_q[1] c_q[2] c_q[3] c_q[4] 
2 1 -254.254 498.926 -492.462 0.465529 0.111711 0.0292954 0.877465 
1 1 497.713 -498.231 -495.129 0.640955 -0.00793003 0.673044 0.368952 
5 1 -493.794 -250.432 -498.439 0.282954 0.75799 0.486426 0.329816 
16 1 245.582 243.825 -491.032 0.807816 0.0932813 -0.0149477 0.581815 
13 1 499.616 253.028 -494.898 0.739446 0.054198 0.477157 0.471808 
3 1 4.77712 498.518 -498.683 0.741368 0.627866 0.23463 0.0332761 
4 1 248.529 498.423 -497.467 0.244525 0.0480985 0.506679 0.825331 
19 1 -1.35953 -491.121 -244.707 0.660685 0.687913 0.27318 0.125073 
22 1 -250.798 -256.915 -254.58 0.468244 0.240974 0.831984 0.174588 
23 1 0.207189 -238.891 -251.299 0.214512 0.109178 0.117154 0.963504 
24 1 249.221 -246.292 -246.929 0.629151 0.201405 0.668603 0.341431 
21 1 493.643 -253.515 -255.356 0.196635 0.140895 0.836309 0.492007 
26 1 -247.821 -0.288768 -258.011 0.103591 0.361519 0.81451 0.441754 
27 1 3.26393 -7.39551 -247.267 0.338496 0.578431 0.603587 0.43188 
25 1 -487.833 2.26404 -246.509 0.168196 0.677208 0.468095 0.542206 
28 1 253.107 2.01156 -251.108 0.458432 0.608995 0.640464 0.0936522 
29 1 -497.501 254.638 -257.146 0.30848 0.571081 0.087986 0.755622 
30 1 -247.476 254.122 -251.758 0.625687 0.414643 0.322799 0.576531 
31 1 0.939633 254.147 -248.375 0.625662 0.00599054 0.307526 0.716895 
32 1 249.349 251.992 -248.157 0.756263 0.224341 0.591704 0.166203 
17 1 -497.43 497.464 -247.421 0.412075 0.709856 0.0186426 0.570921 
18 1 -252.361 497.171 -249.199 0.0594721 0.663938 0.189844 0.720839 
20 1 252.167 497.562 -249.109 0.0177818 0.640063 0.256243 0.724115 
38 1 -253.201 -248.22 -0.782946 0.497998 0.620254 0.494352 0.350569 
39 1 0.609662 -246.631 -3.51242 0.0727595 0.613093 0.172732 0.767454 
40 1 246.593 -241.241 -0.843999 0.857977 0.202649 0.173325 0.439054 
37 1 497.523 -247.581 -0.778627 0.618421 0.610503 0.20454 0.450562 
47 1 3.12702 251.734 -6.80284 -0.0083508 0.894139 0.443724 0.0596154 
33 1 -497.363 498.004 -4.73245 0.232748 0.00706378 0.693309 0.681983 
35 1 -3.76097 498.245 -4.20526 0.303887 0.237571 0.35281 0.852489 
34 1 -257.22 -495.732 4.91638 0.556942 0.132081 0.593768 0.565517 
43 1 -0.0953695 -2.43563 5.8714 0.64671 0.333184 0.113932 0.67659 
44 1 252.85 -5.09012 5.02606 0.42076 0.688683 0.517074 0.285151 
41 1 -494.945 8.70779 -0.661821 0.549318 0.563345 0.114087 0.606528 
42 1 -248.13 0.981203 8.68948 0.735755 0.645536 0.172069 0.111084 
46 1 -251.038 252.814 0.650524 0.752508 0.652001 0.0573999 0.0730177 
48 1 253.187 247.976 7.7406 -0.0235063 0.790898 0.210849 0.573995 
45 1 498.559 248.665 2.15383 0.357066 0.348269 0.825383 0.264492 
36 1 250.721 499.123 6.25673 0.491751 0.0464172 0.677844 0.544568 
51 1 2.33642 -499.652 249.933 0.685206 0.569087 0.182771 0.416207 
52 1 243.088 -499.498 248.658 0.805418 0.132913 0.55452 0.161691 
53 1 -498.103 -248.345 252.147 0.189017 0.480802 0.592009 0.618569 
54 1 -255.289 -249.458 254.379 0.578263 0.737636 0.299645 0.178095 
55 1 3.53696 -253.268 251.951 0.00553392 0.286596 0.608641 0.739857 
49 1 -496.503 497.452 246.506 0.696282 0.249612 0.490909 0.460319 
50 1 -244.861 496.132 258.081 0.629934 0.323938 0.29456 0.641468 
6 1 -250.954 -251.473 498.618 0.805004 0.550727 0.203492 -0.0851996 
7 1 -2.77461 -252.844 497.805 0.414675 0.382085 0.709765 0.422244 
8 1 245.904 -252.47 494.873 0.399762 0.914312 0.0454575 0.0464417 
10 1 -248.239 -1.50243 497.973 0.22857 0.424932 0.534358 0.69401 
11 1 2.15157 -0.542163 498.219 0.525742 0.283461 0.30421 0.742093 
12 1 248.247 3.4184 489.795 0.770513 0.0618448 0.457425 0.439599 
9 1 498.897 -1.00215 492.429 0.506082 0.558417 0.202968 0.625184 
14 1 -241.255 259.688 498.647 0.433697 0.820765 0.215989 0.302657 
15 1 -4.25096 250.366 497.18 0.505054 0.757584 0.390861 0.134964 
ITEM: TIMESTEP
30000
ITEM: NUMBER OF ATOMS
55
ITEM: BOX BOUNDS pp pp pp
-5.0000000000000000e+02 5.0000000000000000e+02
-5.0000000000000000e+02 5.0000000000000000e+02
-5.0000000000000000e+02 5.0000000000000000e+02
ITEM: ATOMS id type x y z c_q[1] c_q[2] c_q[3] c_q[4] 
5 1 -494.225 -249.846 -494.806 0.251555 0.773109 0.499377 0.299407 
13 1 499.869 253.508 -498.352 0.767368 0.0610381 0.454294 0.448371 
14 1 -240.86 262.876 -497.191 0.439323 0.804738 0.18118 0.35576 
16 1 243.38 249.948 -490.383 0.823077 0.0958297 -0.0171614 0.559523 
2 1 -251.659 499.63 -485.497 0.47466 0.162299 0.0121053 0.864991 
3 1 5.58611 498.534 -498.311 0.744757 0.624902 0.232174 0.0304863 
1 1 493.406 497.479 -494.164 0.653006 -0.0216784 0.682679 0.327204 
19 1 -0.242405 -491.724 -251.575 0.638566 0.723063 0.218025 0.147911 
22 1 -254.552 -260.556 -254.173 0.471377 0.215421 0.825432 0.223741 
23 1 3.99101 -237.755 -259.195 0.214015 0.138955 0.1587 0.953784 
24 1 247.858 -251.614 -245.06 0.634803 0.228127 0.652999 0.344347 
21 1 490.656 -253.836 -257.371 0.266244 0.16667 0.833493 0.454559 
26 1 -248.584 -3.3577 -255.887 0.138526 0.36907 0.807609 0.438595 
27 1 4.2989 -7.5729 -249.412 0.393573 0.535626 0.590172 0.458151 
28 1 251.12 -3.27482 -250.25 0.448102 0.671281 0.585136 0.0787514 
25 1 -496.344 3.47508 -251.18 0.194737 0.678987 0.457641 0.540018 
29 1 -491.456 250.907 -253.228 0.334014 0.599722 0.134238 0.714666 
30 1 -249.958 260.658 -252.7 0.647971 0.430612 0.307315 0.547963 
31 1 -0.557065 255.405 -243.976 0.648626 0.00273899 0.28298 0.706541 
32 1 250.898 245.815 -249.594 0.790876 0.205759 0.564297 0.117249 
17 1 -495.503 494.779 -245.719 0.406764 0.749266 0.0433678 0.520829 
18 1 -251.252 490.859 -249.456 0.0406872 0.664708 0.216963 0.713747 
20 1 255.961 494.655 -252.641 -0.0173699 0.62741 0.265061 0.731982 
39 1 -0.381461 -245.091 -4.68731 0.066788 0.669251 0.117639 0.730619 
40 1 251.594 -239.32 0.527887 0.834194 0.205143 0.189928 0.475356 
37 1 495.45 -248.781 -3.40601 0.636925 0.628259 0.177661 0.409944 
47 1 5.00089 249.906 -6.843 -0.000140888 0.884728 0.462753 0.0558162 
35 1 -5.7984 -499.232 -4.36008 0.269401 0.256251 0.339366 0.864054 
33 1 496.47 495.101 -4.6667 0.227933 0.00782676 0.676914 0.699837 
34 1 -259.041 -498.24 4.3992 0.593132 0.127634 0.599402 0.522131 
36 1 251.799 -496.682 4.29732 0.453013 0.0925071 0.674239 0.575867 
38 1 -252.027 -249.55 1.81298 0.490152 0.658313 0.433842 0.371693 
42 1 -249.797 -5.45208 6.90908 0.696191 0.683359 0.198645 0.0942288 
43 1 2.4939 -4.6472 -0.226354 0.615989 0.369923 0.0975425 0.688622 
44 1 252.298 -3.56714 1.38587 0.44279 0.659977 0.522635 0.308577 
41 1 -493.467 9.57426 0.999959 0.593216 0.535337 0.105428 0.591941 
45 1 -497.48 249.029 3.06501 0.357708 0.343363 0.826182 0.267525 
46 1 -252.259 246.402 2.90313 0.748175 0.64865 0.0519565 0.129564 
48 1 251.951 244.897 3.11516 -0.0361601 0.806994 0.211104 0.550353 
50 1 -243.848 -493.421 257.239 0.591129 0.281511 0.342354 0.673878 
51 1 -2.29712 -495.087 261.195 0.653073 0.583638 0.207109 0.435854 
52 1 241.338 -495.965 248.426 0.781119 0.157602 0.58293 0.158768 
53 1 -492.119 -247.431 251.095 0.206315 0.464985 0.586968 0.629835 
54 1 -255.751 -245.292 251.707 0.581741 0.725287 0.324658 0.17359 
55 1 7.04963 -252.622 254.216 0.0430947 0.308573 0.621299 0.718967 
49 1 -493.305 496.916 248.54 0.727592 0.231945 0.465404 0.44745 
6 1 -249.257 -252.522 -499.598 0.811655 0.534028 0.223907 -0.0767852 
7 1 -0.239904 -251.922 489.253 0.430851 0.384286 0.691472 0.434232 
8 1 245.964 -251.162 492.94 0.432685 0.89838 0.0234928 0.0717331 
10 1 -252.165 0.510918 494.837 0.185713 0.386169 0.560987 0.708292 
11 1 -4.37675 2.32288 492.065 0.507603 0.282112 0.28191 0.763727 
12 1 249.495 7.2879 486.594 0.758837 0.0574405 0.446992 0.470175 
9 1 495.121 2.94562 498.965 0.533087 0.559641 0.190198 0.605346 
15 1 0.0500845 251.581 497.469 0.444727 0.785136 0.404573 0.148662 
4 1 249.565 497.593 494.112 0.224346 0.0699657 0.509318 0.82787 
ITEM: TIMESTEP
40000
ITEM: NUMBER OF ATOMS
55
ITEM: BOX BOUNDS pp pp pp
-5.0000000000000000e+02 5.0000000000000000e+02
-5.0000000000000000e+02 5.0000000000000000e+02
-5.0000000000000000e+02 5.0000000000000000e+02
ITEM: ATOMS id type x y z c_q[1] c_q[2] c_q[3] c_q[4] 
2 1 -251.085 -496.351 -480.927 0.481087 0.170704 0.0416316 0.858884 
3 1 9.11432 -496.972 -494.656 0.745409 0.618413 0.248775 0.00649186 
5 1 -498.504 -253.307 -492.113 0.277142 0.758426 0.517977 0.282281 
6 1 -246.575 -250.584 -491.035 0.782188 0.553066 0.26221 -0.116387 
9 1 496.194 5.08621 -493.244 0.517474 0.541992 0.204199 0.629895 
14 1 -235.026 261.468 -490.402 0.460258 0.80333 0.149195 0.347224 
16 1 245.015 249.717 -490.717 0.824449 0.0853567 -0.0624149 0.55597 
13 1 499.924 251.9 -494.905 0.734826 0.0948902 0.490738 0.458479 
1 1 492.508 496.186 -495.649 0.684029 -0.0163184 0.667767 0.29313 
19 1 -5.63334 -490.592 -252.084 0.640836 0.721433 0.20348 0.16571 
22 1 -255.702 -261.619 -251.397 0.452985 0.235684 0.827369 0.233919 
23 1 -0.367908 -241.026 -256.541 0.213042 0.081365 0.136764 0.963996 
24 1 245.931 -252.906 -247.416 0.614715 0.226973 0.67793 0.333196 
21 1 494.553 -259.569 -254.093 0.268095 0.192013 0.837326 0.436051 
26 1 -248.046 -2.58147 -256.207 0.155056 0.414969 0.778985 0.44378 
27 1 4.19854 -6.17478 -247.829 0.357807 0.493301 0.61574 0.499493 
28 1 253.471 -2.82757 -245.449 0.439093 0.672181 0.589304 0.0899458 
25 1 -500.163 7.06898 -251.787 0.178029 0.634416 0.482235 0.577296 
29 1 -490.197 251.594 -253.57 0.367642 0.628929 0.103897 0.677121 
30 1 -252.998 265.464 -254.477 0.676345 0.430076 0.310381 0.511131 
31 1 -0.715721 255.202 -243.469 0.6559 0.002461 0.322233 0.682609 
32 1 253.576 248.987 -250.784 0.805174 0.213789 0.537275 0.131625 
17 1 -493.037 498.173 -243.754 0.449769 0.734225 0.00413396 0.508531 
18 1 -248.274 486.21 -249.985 -0.0249837 0.66282 0.203646 0.720121 
20 1 255.025 494.822 -253.601 0.00626769 0.609779 0.259939 0.748707 
36 1 252.107 -497.553 -0.809713 0.44656 0.0799206 0.644487 0.615494 
38 1 -256.185 -249.841 -0.0563317 0.496154 0.644726 0.465599 0.348393 
37 1 496.334 -249.854 -1.93383 0.632762 0.652682 0.155294 0.386655 
44 1 248.302 -3.37578 -3.07202 0.457962 0.682602 0.497714 0.276779 
47 1 8.98461 254.26 -4.50421 -0.000807658 0.89312 0.449596 0.0141159 
48 1 257.307 247.165 -0.549123 -0.0962245 0.818707 0.217209 0.522761 
35 1 -10.342 -496.028 2.65196 0.311585 0.238038 0.349349 0.851004 
39 1 -4.05711 -246.246 0.940684 0.0719024 0.66142 0.111993 0.738114 
40 1 254.421 -240.105 1.87687 0.812183 0.136853 0.202724 0.529653 
42 1 -251.588 -7.56846 4.27203 0.722084 0.668752 0.145047 0.101623 
43 1 7.34199 -5.21458 2.70077 0.586042 0.383722 0.150672 0.697574 
41 1 -491.23 13.3416 4.73179 0.602492 0.537794 0.128659 0.575524 
45 1 -497.352 247.572 1.24796 0.393454 0.358876 0.809576 0.246958 
46 1 -253.638 246.338 2.66993 0.756303 0.644389 0.062927 0.0938551 
34 1 -257.986 498.268 3.87781 0.629914 0.0732971 0.587616 0.502537 
33 1 497.733 498.923 1.3055 0.23048 0.0224144 0.690972 0.684788 
50 1 -243.576 -493.207 255.566 0.641807 0.270544 0.336865 0.63357 
51 1 -8.89104 -498.751 261.064 0.657223 0.549998 0.212239 0.469589 
52 1 241.242 -500.098 253.538 0.773529 0.112553 0.607622 0.140644 
53 1 -492.403 -248.789 249.411 0.145485 0.496891 0.60932 0.600552 
54 1 -252.807 -243.685 250.081 0.592293 0.7409 0.291959 0.122536 
55 1 6.43879 -258.235 252.674 0.0505989 0.344559 0.592286 0.726578 
49 1 -497.586 497.083 251.105 0.735502 0.217682 0.438981 0.467917 
7 1 -4.87183 -254.247 489.206 0.418854 0.412506 0.698196 0.408562 
8 1 247.113 -253.907 488.144 0.403764 0.907541 0.0372333 0.109352 
10 1 -256.001 0.819843 496.827 0.222673 0.36275 0.578339 0.695955 
11 1 -7.67471 -0.261124 489.239 0.542457 0.270265 0.250725 0.754874 
12 1 252.447 7.51172 486.768 0.771932 0.079927 0.430781 0.46061 
15 1 -0.739893 248.298 -499.718 0.392072 0.800161 0.418555 0.175595 
4 1 252.427 490.257 493.511 0.212479 0.0908079 0.512552 0.826981 
ITEM: TIMESTEP
50000
ITEM: NUMBER OF ATOMS
55
ITEM: BOX BOUNDS pp pp pp
-5.0000000000000000e+02 5.0000000000000000e+02
-5.0000000000000000e+02 5.0000000000000000e+02
-5.0000000000000000e+02 5.0000000000000000e+02
ITEM: ATOMS id type x y z c_q[1] c_q[2] c_q[3] c_q[4] 
2 1 -248.097 -496.448 -481.667 0.507625 0.168578 0.0315598 0.844335 
3 1 3.19946 -499.362 -492.319 0.761289 0.581814 0.285238 0.0238827 
6 1 -250.658 -252.693 -489.868 0.769483 0.596313 0.211748 -0.0864255 
5 1 499.499 -248.562 -492.629 0.239328 0.784528 0.504309 0.270018 
9 1 494.442 1.76762 -486.01 0.510413 0.544614 0.251868 0.615984 
13 1 -499.882 252.271 -487.394 0.715402 0.0476684 0.504207 0.481356 
14 1 -239.935 260.958 -495.572 0.461835 0.810418 0.170173 0.317762 
16 1 245.031 247.734 -492.394 0.810741 0.112858 -0.0801041 0.568811 
1 1 495.965 492.83 -498.554 0.660124 -0.0501068 0.690849 0.290609 
19 1 -10.7059 -491.47 -253.947 0.628031 0.736252 0.163566 0.191717 
20 1 249.557 -499.417 -248.558 -0.0141503 0.584096 0.291627 0.757354 
22 1 -260.343 -261.233 -248.714 0.421471 0.294152 0.826473 0.229739 
23 1 -3.6505 -235.236 -252.067 0.187369 0.0688998 0.162498 0.966302 
24 1 244.963 -253.134 -251.494 0.623794 0.173475 0.684805 0.334409 
21 1 494.285 -257.352 -250.119 0.265993 0.216177 0.847346 0.405611 
27 1 4.96494 -7.14884 -251.265 0.363165 0.517934 0.595815 0.494833 
28 1 252.772 -5.11024 -238.673 0.438844 0.672861 0.588677 0.0901866 
26 1 -250.682 0.445847 -255.982 0.130364 0.478095 0.746433 0.444148 
25 1 499.218 7.91243 -252.684 0.136831 0.633982 0.516946 0.558669 
29 1 -488.622 259.389 -251.479 0.345967 0.620768 0.139654 0.68953 
30 1 -256.545 265.026 -259.742 0.630039 0.443559 0.297753 0.563603 
31 1 -6.98399 252.574 -246.379 0.659929 -0.0230609 0.326744 0.676166 
32 1 250.695 243.423 -247.071 0.801672 0.210189 0.538668 0.151592 
17 1 -494.229 496.659 -246.464 0.442452 0.74691 0.0134546 0.496166 
18 1 -249.12 479.671 -250.189 -0.0291414 0.648711 0.216822 0.728912 
36 1 250.917 499.121 -4.7609 0.388725 0.0353892 0.658001 0.643953 
37 1 492.493 -254.703 -0.43901 0.616427 0.640072 0.194888 0.415143 
41 1 -494.005 9.95466 -2.58343 0.613785 0.52566 0.0604526 0.585914 
44 1 246.17 4.97431 -2.56207 0.453404 0.710703 0.481134 0.240491 
45 1 -494.319 256.566 -3.14959 0.423617 0.414566 0.777089 0.211697 
46 1 -256.967 248.377 -0.292077 0.730028 0.678564 0.0131264 0.080232 
47 1 10.4509 254.449 -8.10224 -0.0521995 0.887342 0.457012 0.0322476 
48 1 253.199 249.716 -2.15166 -0.0715819 0.820105 0.196198 0.532738 
35 1 -9.16261 -496.532 2.1152 0.29037 0.28523 0.353978 0.842038 
38 1 -255.305 -254.123 0.0776134 0.513275 0.66835 0.43931 0.311231 
39 1 -4.44549 -245.379 6.41173 0.0746172 0.676966 0.102523 0.725009 
40 1 251.672 -238.578 1.45083 0.803547 0.148233 0.208124 0.537609 
42 1 -251.985 -11.17 4.19635 0.736058 0.653869 0.142369 0.102004 
43 1 9.87572 -8.08087 8.1514 0.56985 0.429467 0.153037 0.683673 
34 1 -269.87 499.35 2.0689 0.602611 0.0782622 0.624462 0.490696 
33 1 497.114 -499.417 4.29056 0.26135 0.0591305 0.696644 0.665497 
50 1 -238.254 -493.115 259.919 0.624086 0.318847 0.335689 0.629417 
53 1 -491.993 -252.961 242.83 0.102035 0.499398 0.618497 0.59804 
54 1 -252.299 -246.189 249.612 0.581104 0.764273 0.252533 0.120136 
55 1 4.25796 -264.896 247.004 -0.001868 0.355969 0.622928 0.696594 
49 1 -493.133 495.67 255.964 0.725027 0.214432 0.433104 0.490689 
51 1 -10.1831 497.734 257.582 0.64544 0.568278 0.183726 0.476142 
52 1 248.849 499.055 253.53 0.806074 0.0846314 0.552614 0.194163 
7 1 -10.6942 -249.897 490.881 0.36266 0.443269 0.710931 0.408127 
8 1 244.031 -256.54 485.449 0.417684 0.893402 0.0129386 0.164937 
10 1 -262.938 2.49366 496.32 0.198306 0.366268 0.581401 0.698925 
11 1 -9.37827 -0.20387 485.393 0.536959 0.276207 0.273461 0.748735 
12 1 257.683 5.04942 483.944 0.75873 0.0375231 0.431559 0.486496 
15 1 -2.70207 245.105 496.608 0.411387 0.800749 0.392596 0.188226 
4 1 247.564 494.821 493.909 0.146806 0.0644118 0.466452 0.869897 
ITEM: TIMESTEP
60000
ITEM: NUMBER OF ATOMS
55
ITEM: BOX BOUNDS pp pp pp
-5.0000000000000000e+02 5.0000000000000000e+02
-5.0000000000000000e+02 5.0000000000000000e+02
-5.0000000000000000e+02 5.0000000000000000e+02
ITEM: ATOMS id type x y z c_q[1] c_q[2] c_q[3] c_q[4] 
2 1 -247.896 -490.955 -476.867 0.444882 0.152819 0.0285468 0.881993 
3 1 1.31552 -494.41 -492.24 0.766997 0.599307 0.223302 0.0518003 
6 1 -249.65 -252.071 -493.85 0.750392 0.590518 0.267007 -0.130033 
5 1 498.456 -249.67 -487.456 0.227916 0.794938 0.474263 0.301998 
9 1 489.581 2.71523 -487.354 0.526211 0.511587 0.260381 0.627361 
13 1 -493.32 248.755 -488.426 0.716584 0.0582494 0.51985 0.461378 
14 1 -243.858 257.004 -495.944 0.435034 0.818631 0.167513 0.335453 
16 1 249.733 251.598 -493.201 0.811637 0.104955 -0.0937134 0.566964 
19 1 -13.5549 -496.217 -254.213 0.658933 0.715243 0.153767 0.174898 
20 1 250.614 -498.829 -246.327 -0.0132096 0.609262 0.286699 0.739208 
22 1 -256.918 -257.86 -250.051 0.42319 0.290678 0.829283 0.220692 
23 1 -1.84196 -237.703 -251.128 0.186024 0.0887889 0.15129 0.966759 
24 1 245.607 -254.021 -256.197 0.624877 0.128296 0.671372 0.377265 
21 1 491.618 -259.298 -249.868 0.216299 0.255638 0.865953 0.37147 
28 1 249.564 -5.79281 -247.231 0.432272 0.654995 0.607763 0.121437 
26 1 -253.293 0.518339 -255.137 0.123002 0.465354 0.7368 0.474807 
27 1 8.47161 0.53009 -247.88 0.35676 0.506258 0.579074 0.530187 
25 1 497.192 7.42053 -255.842 0.163647 0.600041 0.523599 0.58225 
29 1 -486.234 258.075 -252.326 0.369734 0.595876 0.124999 0.701858 
30 1 -256.249 261.132 -260.571 0.593154 0.445864 0.309405 0.594678 
31 1 -7.02102 249.427 -249.853 0.681264 -0.0128843 0.348121 0.643836 
32 1 243.617 245.79 -246.338 0.835229 0.180548 0.491999 0.166533 
17 1 -499.841 495.724 -238.761 0.454271 0.707416 0.0589913 0.538257 
18 1 -246.479 475.884 -249.681 -0.0581952 0.672974 0.195443 0.711 
35 1 -7.81378 -493.748 -0.693351 0.23539 0.308357 0.389229 0.835469 
44 1 248.104 9.94171 -5.3155 0.450741 0.737098 0.458911 0.207172 
46 1 -257.552 247.204 -5.9113 0.716511 0.691587 -0.0286188 0.0866003 
47 1 5.16012 253.93 -7.71668 -0.0154868 0.905579 0.421202 0.0477055 
36 1 250.638 -499.549 -2.99547 0.388278 0.0685246 0.674681 0.623979 
33 1 497.827 498.511 7.60077 0.296299 0.084282 0.687633 0.657468 
38 1 -252.701 -249.825 3.46547 0.525392 0.650724 0.409864 0.36405 
39 1 -3.85222 -245.956 9.15345 0.067835 0.681602 0.128457 0.717158 
40 1 255.954 -239.937 0.850527 0.813152 0.152693 0.186378 0.529842 
37 1 488.494 -253.493 -0.251477 0.597091 0.647162 0.205269 0.427234 
42 1 -248.043 -13.2733 3.5544 0.747382 0.644215 0.107357 0.12199 
43 1 8.75175 -4.56509 7.08207 0.584214 0.435086 0.177048 0.661852 
41 1 -495.943 11.0026 2.94735 0.617716 0.539686 0.0856533 0.565534 
45 1 -494.536 257.427 -0.191873 0.454859 0.414992 0.768442 0.174305 
48 1 251.443 248.958 1.97807 -0.0430709 0.804641 0.216971 0.551019 
34 1 -268.803 495.19 0.639905 0.569293 0.0185507 0.638319 0.517794 
50 1 -242.176 -490.856 256.883 0.632796 0.337721 0.339862 0.608282 
52 1 248.061 -499.332 255.762 0.837132 0.0937314 0.500833 0.198975 
53 1 -493.502 -259.779 246.226 0.103866 0.515136 0.642277 0.557967 
54 1 -249.492 -246.961 246.693 0.609031 0.752092 0.206628 0.14403 
55 1 4.79479 -270.79 252.955 0.00736634 0.342931 0.634299 0.692827 
49 1 -490.337 494.457 259.173 0.715356 0.185131 0.413413 0.532054 
51 1 -12.868 497.358 255.577 0.635899 0.543568 0.115703 0.535517 
7 1 -8.70644 -249.547 498.676 0.383747 0.43755 0.691165 0.428462 
8 1 241.588 -257.09 485.962 0.463396 0.872761 -0.0272351 0.15103 
11 1 -6.1002 -0.511709 484.578 0.505422 0.281303 0.281745 0.765531 
10 1 -264.064 8.69118 496.269 0.254455 0.32519 0.604662 0.681094 
12 1 255.085 4.82503 480.522 0.78458 -0.0128073 0.374916 0.493668 
15 1 -3.33998 239.471 499.302 0.415356 0.804516 0.383689 0.181706 
4 1 246.168 494.895 496.963 0.217671 0.0799406 0.462997 0.85549 
1 1 497.427 493.812 497.688 0.703014 -0.0757601 0.637563 0.305853 
ITEM: TIMESTEP
70000
ITEM: NUMBER OF ATOMS
55
ITEM: BOX BOUNDS pp pp pp
-5.0000000000000000e+02 5.0000000000000000e+02
-5.0000000000000000e+02 5.0000000000000000e+02
-5.0000000000000000e+02 5.0000000000000000e+02
ITEM: ATOMS id type x y z c_q[1] c_q[2] c_q[3] c_q[4] 
2 1 -244.099 -489.394 -477.184 0.463243 0.200242 0.0467147 0.862048 
3 1 -2.38173 -496.485 -494.793 0.752553 0.610288 0.236973 0.071111 
6 1 -247.481 -256.056 -492.156 0.744733 0.580366 0.306959 -0.119689 
5 1 496.549 -248.817 -486.577 0.227379 0.799028 0.468089 0.301241 
10 1 -265.032 10.1549 499.69 0.244339 0.310084 0.59093 0.703526 
9 1 491.539 1.2805 -489.508 0.487317 0.488565 0.237398 0.683716 
13 1 -498.62 251.128 -487.854 0.687678 0.0822421 0.532604 0.486486 
14 1 -239.936 264.418 -493.577 0.44169 0.833487 0.121512 0.308942 
16 1 247.883 252.199 -489.286 0.795114 0.108421 -0.0644474 0.593199 
19 1 -12.8696 -491.935 -251.981 0.647563 0.728885 0.121515 0.186071 
20 1 251.947 499.811 -242.634 0.00469832 0.587561 0.309395 0.74768 
22 1 -256.209 -259.91 -256.484 0.433655 0.292112 0.824134 0.217754 
23 1 -6.47952 -234.745 -250.216 0.251549 0.134894 0.16012 0.944928 
24 1 251.245 -255.411 -250.986 0.645758 0.119329 0.64909 0.383979 
21 1 493.567 -261.597 -247.87 0.237478 0.228137 0.863694 0.381563 
28 1 243.794 -1.9078 -244.143 0.399501 0.664961 0.61707 0.132103 
26 1 -253.609 0.586571 -251.714 0.126336 0.432175 0.75484 0.47695 
27 1 9.92599 1.19403 -248.02 0.378327 0.501797 0.582779 0.515206 
25 1 493.592 12.4599 -257.381 0.14295 0.577681 0.523356 0.609876 
29 1 -485.202 261.705 -249.86 0.382645 0.626488 0.088432 0.673257 
30 1 -256.839 261.367 -262.366 0.582535 0.407043 0.301017 0.635891 
31 1 -6.93971 247.647 -247.703 0.677853 0.0122722 0.324208 0.659737 
32 1 244.143 247.5 -243.499 0.830229 0.176344 0.504365 0.158866 
18 1 -242.11 476.624 -251.416 -0.0824677 0.646445 0.147965 0.743918 
17 1 498.199 495.183 -232.187 0.475786 0.692089 0.0533712 0.540178 
40 1 260.395 -245.191 -3.36049 0.819481 0.10411 0.218351 0.519552 
37 1 483.619 -252 -0.60638 0.589362 0.613194 0.234885 0.47061 
44 1 248.288 13.8752 -3.02637 0.441013 0.736818 0.466796 0.211445 
46 1 -258.264 246.8 -1.64977 0.702295 0.704257 -0.0824259 0.0633301 
47 1 4.72905 249.756 -11.6814 0.00300165 0.87824 0.472606 0.0729994 
36 1 255.292 497.83 -3.32324 0.380593 0.0312101 0.654135 0.652903 
35 1 -4.01645 -492.723 1.89016 0.275648 0.317747 0.393177 0.817598 
38 1 -257.68 -252.58 3.34336 0.536863 0.610825 0.456965 0.360353 
39 1 -4.21102 -242.186 10.557 0.0734898 0.635268 0.149491 0.754113 
42 1 -246.299 -8.13292 2.73122 0.752229 0.622724 0.105003 0.187989 
43 1 9.35152 -4.70825 7.42692 0.592766 0.452148 0.155125 0.648172 
41 1 -492.952 15.1441 5.86351 0.616016 0.518896 0.115836 0.581252 
45 1 -490.812 259.846 9.27899 0.446944 0.429044 0.766344 0.169935 
48 1 252.676 247.121 7.20575 -0.0278498 0.803108 0.262185 0.534324 