LAMMPS data file

40 atoms
40 ellipsoids
0 bonds
0 angles
0 dihedrals

1 atom types
0 bond types
0 angle types
0 dihedral types

-500.000000 500.000000 xlo xhi
-500.000000 500.000000 ylo yhi
-500.000000 500.000000 zlo zhi

Masses

1 203166.000000

Atoms

1 1 -500.000000 -500.000000 -500.000000 1 1.000000 3 0.000000
2 1 -250.000000 -500.000000 -500.000000 1 1.000000 4 0.000000
3 1 0.000000 -500.000000 -500.000000 1 1.000000 5 0.000000
4 1 250.000000 -500.000000 -500.000000 1 1.000000 6 0.000000
5 1 -500.000000 -250.000000 -500.000000 1 1.000000 7 0.000000
6 1 -250.000000 -250.000000 -500.000000 1 1.000000 8 0.000000
7 1 0.000000 -250.000000 -500.000000 1 1.000000 9 0.000000
8 1 250.000000 -250.000000 -500.000000 1 1.000000 10 0.000000
9 1 -500.000000 0.000000 -500.000000 1 1.000000 11 0.000000
10 1 -250.000000 0.000000 -500.000000 1 1.000000 12 0.000000
11 1 0.000000 0.000000 -500.000000 1 1.000000 13 0.000000
12 1 250.000000 0.000000 -500.000000 1 1.000000 14 0.000000
13 1 -500.000000 250.000000 -500.000000 1 1.000000 15 0.000000
14 1 -250.000000 250.000000 -500.000000 1 1.000000 16 0.000000
15 1 0.000000 250.000000 -500.000000 1 1.000000 17 0.000000
16 1 250.000000 250.000000 -500.000000 1 1.000000 18 0.000000
17 1 -500.000000 -500.000000 -250.000000 1 1.000000 19 0.000000
18 1 -250.000000 -500.000000 -250.000000 1 1.000000 20 0.000000
19 1 0.000000 -500.000000 -250.000000 1 1.000000 21 0.000000
20 1 250.000000 -500.000000 -250.000000 1 1.000000 22 0.000000
21 1 -500.000000 -250.000000 -250.000000 1 1.000000 23 0.000000
22 1 -250.000000 -250.000000 -250.000000 1 1.000000 24 0.000000
23 1 0.000000 -250.000000 -250.000000 1 1.000000 25 0.000000
24 1 250.000000 -250.000000 -250.000000 1 1.000000 26 0.000000
25 1 -500.000000 0.000000 -250.000000 1 1.000000 27 0.000000
26 1 -250.000000 0.000000 -250.000000 1 1.000000 28 0.000000
27 1 0.000000 0.000000 -250.000000 1 1.000000 29 0.000000
28 1 250.000000 0.000000 -250.000000 1 1.000000 30 0.000000
29 1 -500.000000 250.000000 -250.000000 1 1.000000 31 0.000000
30 1 -250.000000 250.000000 -250.000000 1 1.000000 32 0.000000
31 1 0.000000 250.000000 -250.000000 1 1.000000 33 0.000000
32 1 250.000000 250.000000 -250.000000 1 1.000000 34 0.000000
33 1 -500.000000 -500.000000 0.000000 1 1.000000 35 0.000000
34 1 -250.000000 -500.000000 0.000000 1 1.000000 36 0.000000
35 1 0.000000 -500.000000 0.000000 1 1.000000 37 0.000000
36 1 250.000000 -500.000000 0.000000 1 1.000000 38 0.000000
37 1 -500.000000 -250.000000 0.000000 1 1.000000 39 0.000000
38 1 -250.000000 -250.000000 0.000000 1 1.000000 40 0.000000
39 1 0.000000 -250.000000 0.000000 1 1.000000 41 0.000000
40 1 250.000000 -250.000000 0.000000 1 1.000000 42 0.000000

Ellipsoids

1 55.000000 110.000000 110.000000 0.169012 0.665708 0.350805 0.636556
2 55.000000 110.000000 110.000000 0.169447 0.802576 0.523684 0.230032
3 55.000000 110.000000 110.000000 0.481321 0.585425 0.023577 0.651961
4 55.000000 110.000000 110.000000 0.616100 0.498629 0.591461 0.148202
5 55.000000 110.000000 110.000000 0.664451 0.282414 0.596563 0.350514
6 55.000000 110.000000 110.000000 0.431391 0.656670 0.553717 0.275832
7 55.000000 110.000000 110.000000 0.361315 0.811032 0.341712 0.308076
8 55.000000 110.000000 110.000000 0.279341 0.020840 0.464142 0.840301
9 55.000000 110.000000 110.000000 0.571763 0.724726 0.081867 0.375710
10 55.000000 110.000000 110.000000 0.367678 0.666730 0.152930 0.629997
11 55.000000 110.000000 110.000000 0.075069 0.434391 0.592284 0.674440
12 55.000000 110.000000 110.000000 0.305634 0.130977 0.449142 0.829279
13 55.000000 110.000000 110.000000 0.776272 0.366583 0.419418 0.295139
14 55.000000 110.000000 110.000000 0.423733 0.198412 0.467391 0.750086
15 55.000000 110.000000 110.000000 0.001212 0.458276 0.845932 0.272728
16 55.000000 110.000000 110.000000 0.211373 0.060658 0.201343 0.954517
17 55.000000 110.000000 110.000000 0.622219 0.258880 0.575008 0.463887
18 55.000000 110.000000 110.000000 0.747963 0.221491 0.405103 0.476849
19 55.000000 110.000000 110.000000 0.098723 0.877890 0.181359 0.432057
20 55.000000 110.000000 110.000000 0.333265 0.762907 0.149179 0.533528
21 55.000000 110.000000 110.000000 0.026951 0.687446 0.205367 0.696072
22 55.000000 110.000000 110.000000 0.095175 0.689600 0.481995 0.532048
23 55.000000 110.000000 110.000000 0.710775 0.360338 0.453497 0.399119
24 55.000000 110.000000 110.000000 0.661577 0.425706 0.440409 0.432585
25 55.000000 110.000000 110.000000 0.228354 0.188062 0.638393 0.710592
26 55.000000 110.000000 110.000000 0.342960 0.495434 0.002754 0.798070
27 55.000000 110.000000 110.000000 0.653180 0.153773 0.625199 0.398542
28 55.000000 110.000000 110.000000 0.370892 0.657404 0.582998 0.300621
29 55.000000 110.000000 110.000000 0.615468 0.134279 0.589223 0.505949
30 55.000000 110.000000 110.000000 0.896273 0.294517 0.304100 0.132203
31 55.000000 110.000000 110.000000 0.371026 0.651846 0.548860 0.369038
32 55.000000 110.000000 110.000000 0.053340 0.665016 0.626067 0.403670
33 55.000000 110.000000 110.000000 0.310008 0.812420 0.415538 0.266828
34 55.000000 110.000000 110.000000 0.571673 0.581174 0.421642 0.397044
35 55.000000 110.000000 110.000000 0.384194 0.387051 0.201440 0.813639
36 55.000000 110.000000 110.000000 0.761773 0.002500 0.245806 0.599396
37 55.000000 110.000000 110.000000 0.355427 0.300542 0.701303 0.539926
38 55.000000 110.000000 110.000000 0.330965 0.549642 0.486153 0.593305
39 55.000000 110.000000 110.000000 0.518101 0.764079 0.215915 0.318019
40 55.000000 110.000000 110.000000 0.796470 0.091931 0.272618 0.531849




