ITEM: TIMESTEP
0
ITEM: NUMBER OF ATOMS
40
ITEM: BOX BOUNDS pp pp pp
-5.0000000000000000e+02 5.0000000000000000e+02
-5.0000000000000000e+02 5.0000000000000000e+02
-5.0000000000000000e+02 5.0000000000000000e+02
ITEM: ATOMS id type x y z c_q[1] c_q[2] c_q[3] c_q[4] 
1 1 -500 -500 -500 0.169012 0.665708 0.350805 0.636556 
2 1 -250 -500 -500 0.169447 0.802576 0.523684 0.230032 
3 1 0 -500 -500 0.481321 0.585425 0.023577 0.651961 
4 1 250 -500 -500 0.6161 0.498629 0.591461 0.148202 
5 1 -500 -250 -500 0.664451 0.282414 0.596563 0.350514 
6 1 -250 -250 -500 0.431391 0.65667 0.553717 0.275832 
7 1 0 -250 -500 0.361315 0.811032 0.341712 0.308076 
8 1 250 -250 -500 0.279341 0.02084 0.464142 0.840301 
9 1 -500 0 -500 0.571763 0.724726 0.081867 0.37571 
10 1 -250 0 -500 0.367678 0.66673 0.15293 0.629997 
11 1 0 0 -500 0.075069 0.434391 0.592284 0.67444 
12 1 250 0 -500 0.305634 0.130977 0.449142 0.829279 
13 1 -500 250 -500 0.776272 0.366583 0.419418 0.295139 
14 1 -250 250 -500 0.423733 0.198412 0.467391 0.750086 
15 1 0 250 -500 0.001212 0.458276 0.845932 0.272728 
16 1 250 250 -500 0.211373 0.060658 0.201343 0.954517 
17 1 -500 -500 -250 0.622219 0.25888 0.575008 0.463887 
18 1 -250 -500 -250 0.747963 0.221491 0.405103 0.476849 
19 1 0 -500 -250 0.0987229 0.877889 0.181359 0.432057 
20 1 250 -500 -250 0.333265 0.762907 0.149179 0.533528 
21 1 -500 -250 -250 0.026951 0.687446 0.205367 0.696072 
22 1 -250 -250 -250 0.095175 0.6896 0.481995 0.532048 
23 1 0 -250 -250 0.710775 0.360338 0.453497 0.399119 
24 1 250 -250 -250 0.661577 0.425706 0.440409 0.432585 
25 1 -500 0 -250 0.228354 0.188062 0.638393 0.710592 
26 1 -250 0 -250 0.34296 0.495434 0.002754 0.79807 
27 1 0 0 -250 0.65318 0.153773 0.625199 0.398542 
28 1 250 0 -250 0.370892 0.657404 0.582998 0.300621 
29 1 -500 250 -250 0.615468 0.134279 0.589223 0.505949 
30 1 -250 250 -250 0.896273 0.294517 0.3041 0.132203 
31 1 0 250 -250 0.371026 0.651846 0.54886 0.369038 
32 1 250 250 -250 0.05334 0.665016 0.626067 0.40367 
33 1 -500 -500 0 0.310008 0.81242 0.415538 0.266828 
34 1 -250 -500 0 0.571673 0.581174 0.421642 0.397044 
35 1 0 -500 0 0.384194 0.387051 0.20144 0.813639 
36 1 250 -500 0 0.761773 0.0025 0.245806 0.599396 
37 1 -500 -250 0 0.355427 0.300542 0.701303 0.539926 
38 1 -250 -250 0 0.330965 0.549642 0.486153 0.593305 
39 1 0 -250 0 0.518101 0.764079 0.215915 0.318019 
40 1 250 -250 0 0.79647 0.091931 0.272618 0.531849 
ITEM: TIMESTEP
10000
ITEM: NUMBER OF ATOMS
40
ITEM: BOX BOUNDS pp pp pp
-5.0000000000000000e+02 5.0000000000000000e+02
-5.0000000000000000e+02 5.0000000000000000e+02
-5.0000000000000000e+02 5.0000000000000000e+02
ITEM: ATOMS id type x y z c_q[1] c_q[2] c_q[3] c_q[4] 
4 1 253.203 -499.428 499.682 0.595319 0.531967 0.579482 0.163727 
5 1 496.574 -249.448 499.427 0.686277 0.281233 0.566623 0.358986 
16 1 250.819 245.367 -498.87 0.21461 0.0328135 0.214852 0.95221 
1 1 499.473 499.733 -495.681 0.1317 0.649197 0.361887 0.655924 
19 1 2.3505 498.392 -250.627 0.0888693 0.8681 0.220554 0.435729 
20 1 249.334 -497.196 -251.517 0.390666 0.761059 0.119235 0.503937 
17 1 497.471 -498.252 -248.996 0.629594 0.319817 0.56093 0.432072 
22 1 -245.879 -250.635 -249.736 0.0948679 0.698122 0.495796 0.507751 
23 1 1.16963 -247.299 -260.918 0.699368 0.362243 0.460305 0.409615 
24 1 248.234 -246.088 -250.111 0.683653 0.421478 0.412686 0.429727 
21 1 -498.568 -244.033 -247.35 -0.00122494 0.694037 0.217562 0.686278 
26 1 -247.056 -0.550096 -247.582 0.334709 0.499176 -0.00302 0.799239 
27 1 0.68339 0.0368892 -248.504 0.645365 0.188957 0.602275 0.43019 
28 1 246.511 -0.366807 -251.68 0.311044 0.684097 0.604711 0.263795 
25 1 -498.677 0.964021 -249.806 0.229581 0.180767 0.639211 0.711355 
30 1 -250.985 246.547 -246.163 0.900158 0.301701 0.278905 0.144584 
31 1 -2.91025 249.438 -252.305 0.365864 0.633613 0.576826 0.363249 
32 1 253.52 249.193 -254.101 0.0736288 0.653612 0.65024 0.380209 
29 1 498.989 249.615 -247.137 0.587651 0.116214 0.592742 0.538347 
18 1 -249.828 497.409 -253.674 0.739378 0.220344 0.397974 0.496373 
39 1 -1.10707 -249.898 -3.94623 0.50031 0.775014 0.188358 0.336994 
33 1 499.492 498.193 -1.38586 0.298548 0.817146 0.400257 0.287985 
34 1 -252.704 -498.155 4.27381 0.604048 0.568455 0.389126 0.400707 
35 1 5.92667 -499.41 4.41946 0.399169 0.302883 0.202914 0.84128 
37 1 -492.451 -250.639 1.38069 0.327203 0.329684 0.712116 0.526438 
38 1 -250.687 -252.84 1.11597 0.335118 0.548221 0.517207 0.565374 
40 1 250.94 -252.731 0.221486 0.805178 0.115898 0.282112 0.508594 
36 1 253.98 499.434 2.8594 0.755568 0.0368084 0.297246 0.582586 
6 1 -249.646 -249.138 498.792 0.464146 0.683304 0.494149 0.271073 
7 1 3.56637 -251.455 497.272 0.369997 0.824377 0.317767 0.287277 
8 1 253.124 -253.792 497.608 0.317711 0.0262919 0.446384 0.836127 
10 1 -249.646 -1.94242 498.399 0.382169 0.676297 0.170898 0.606105 
11 1 3.59207 -5.0855 499.072 0.0682397 0.462806 0.608676 0.640833 
12 1 248.826 4.99083 495.575 0.299238 0.126645 0.443287 0.835413 
9 1 499.052 0.291198 491.608 0.555646 0.747538 0.0712193 0.356893 
13 1 -499.029 251.733 495.591 0.756536 0.337774 0.450756 0.332237 
14 1 -250.355 248.317 499.642 0.435632 0.171757 0.467855 0.749557 
15 1 -1.42806 249.164 498.71 -0.00238756 0.515468 0.815203 0.264066 
2 1 -250.589 499.317 499.107 0.176898 0.818233 0.486747 0.249558 
3 1 1.51185 499.238 496.084 0.485957 0.635587 0.0204743 0.599546 
ITEM: TIMESTEP
20000
ITEM: NUMBER OF ATOMS
40
ITEM: BOX BOUNDS pp pp pp
-5.0000000000000000e+02 5.0000000000000000e+02
-5.0000000000000000e+02 5.0000000000000000e+02
-5.0000000000000000e+02 5.0000000000000000e+02
ITEM: ATOMS id type x y z c_q[1] c_q[2] c_q[3] c_q[4] 
11 1 1.19451 -5.36961 -496.069 0.0618054 0.453507 0.633591 0.623758 
12 1 247.727 8.58661 -494.42 0.274279 0.163305 0.40799 0.855363 
14 1 -252.047 244.603 -497.427 0.480611 0.113665 0.409568 0.767038 
16 1 253.916 243.822 500.171 0.191836 0.0816763 0.230746 0.950413 
1 1 -499.103 499.454 -497.994 0.13995 0.638431 0.328129 0.68202 
3 1 1.54318 495.47 -499.756 0.46314 0.6386 0.0210343 0.614206 
19 1 3.23828 -499.881 -249.948 0.0829419 0.890159 0.217623 0.391634 
20 1 245.525 -492.225 -249.679 0.399863 0.75201 0.0793136 0.517977 
21 1 -496.374 -239.439 -245.807 0.0333239 0.696494 0.198122 0.688864 
22 1 -246.967 -252.02 -252.725 0.0549907 0.685998 0.510808 0.515226 
23 1 -0.729832 -248.144 -261.881 0.693257 0.355674 0.456253 0.429796 
24 1 250.59 -249.705 -250.415 0.712529 0.418861 0.384004 0.411581 
26 1 -241.437 -4.26593 -246.376 0.312852 0.465963 -0.0302255 0.827097 
28 1 251.915 -2.89932 -255.201 0.329591 0.677784 0.599159 0.270163 
25 1 -497.668 4.50021 -252.456 0.143284 0.174486 0.678493 0.699051 
27 1 3.57379 4.30575 -248.101 0.632786 0.221436 0.604152 0.430754 
29 1 -496.516 252.644 -249.534 0.594463 0.109287 0.612392 0.509555 
30 1 -255.81 250.302 -244.13 0.911775 0.286833 0.264793 0.127581 
31 1 -2.86921 245.014 -254.367 0.340996 0.65904 0.581711 0.333167 
32 1 254.977 249.683 -253.708 0.0431664 0.666763 0.642972 0.374367 
18 1 -251.384 495.52 -252.125 0.743688 0.226164 0.341394 0.52842 
17 1 497.803 498.592 -254.605 0.632254 0.344067 0.563231 0.405763 
35 1 8.07126 499.811 -0.938091 0.437793 0.297391 0.19322 0.826173 
39 1 -1.56354 -243.162 -6.34092 0.529741 0.742265 0.196625 0.360218 
33 1 -496.136 497.658 -0.641915 0.318764 0.80383 0.39961 0.304235 
36 1 251.571 -495.268 7.54814 0.72752 0.0369056 0.299555 0.616132 
37 1 -491.268 -251.942 2.23283 0.304286 0.310754 0.708187 0.55616 
38 1 -248.966 -250.229 1.74037 0.331228 0.537044 0.468916 0.618053 
40 1 245.815 -252.23 2.25643 0.792116 0.164712 0.326676 0.488575 
34 1 -251.308 498.128 1.10338 0.591587 0.583907 0.412834 0.37235 
2 1 -250.656 -498.861 498.858 0.16399 0.808566 0.499189 0.264836 
4 1 250.84 -499.259 498.536 0.601197 0.571127 0.542753 0.133396 
6 1 -249.809 -255.018 497.729 0.428427 0.709266 0.484287 0.280817 
7 1 -5.08553 -252.821 493.187 0.406704 0.807447 0.327734 0.274247 
8 1 258.835 -253.208 497.761 0.27087 -0.00700117 0.44771 0.852136 
5 1 496.869 -254.499 499.087 0.688091 0.262152 0.572656 0.360378 
10 1 -249.73 -1.17179 497.332 0.444772 0.648817 0.183504 0.589526 
9 1 497.349 2.37552 493.521 0.528667 0.769722 0.0804345 0.348669 
15 1 1.89662 254.552 495.959 0.021068 0.479309 0.839909 0.253714 
13 1 499.883 249.316 495.396 0.733375 0.363111 0.480423 0.315445 
ITEM: TIMESTEP
30000
ITEM: NUMBER OF ATOMS
40
ITEM: BOX BOUNDS pp pp pp
-5.0000000000000000e+02 5.0000000000000000e+02
-5.0000000000000000e+02 5.0000000000000000e+02
-5.0000000000000000e+02 5.0000000000000000e+02
ITEM: ATOMS id type x y z c_q[1] c_q[2] c_q[3] c_q[4] 
1 1 -497.829 -497.323 -495.591 0.113389 0.676037 0.344269 0.641558 
11 1 7.56599 -2.74305 -496.161 0.0324124 0.492751 0.645936 0.582162 
12 1 247.625 9.70267 -496.192 0.254909 0.212962 0.395651 0.85623 
14 1 -250.525 249.636 -499.385 0.499196 0.150709 0.412713 0.746832 
19 1 2.85755 -498.758 -248.289 0.0737084 0.905193 0.203868 0.365554 
20 1 243.121 -491.399 -247.469 0.368385 0.747814 0.0814684 0.546287 
21 1 -496.903 -242.824 -243.996 0.0146312 0.70094 0.20669 0.682458 
22 1 -245.486 -248.579 -249.341 0.0365106 0.660343 0.530466 0.530302 
23 1 -5.45884 -247.912 -262.506 0.743159 0.36116 0.411827 0.384287 
24 1 252.789 -249.329 -246.993 0.732225 0.387647 0.360606 0.428415 
26 1 -237.709 -0.817406 -248.605 0.342271 0.385627 -0.0257103 0.856435 
28 1 250.148 -3.46759 -251.484 0.340724 0.681207 0.589095 0.269874 
25 1 -490.711 7.35736 -253.779 0.158892 0.209292 0.705207 0.658509 
27 1 3.53728 0.693848 -247.617 0.644051 0.23366 0.606286 0.403756 
29 1 -495.117 249.085 -241.233 0.622946 0.191605 0.6038 0.458969 
30 1 -256.527 250.794 -245.215 0.927052 0.28505 0.237627 0.0534334 
31 1 0.153718 244.515 -259.86 0.364314 0.684175 0.562372 0.287954 
32 1 257.921 249.834 -256.243 0.0505488 0.703838 0.599348 0.377942 
18 1 -245.292 494.901 -250.865 0.740389 0.253785 0.329423 0.528108 
17 1 498.026 497.194 -258.076 0.608906 0.32435 0.586711 0.424029 
34 1 -257.652 499.48 0.366465 0.565955 0.543785 0.424468 0.451464 
38 1 -246.851 -248.922 -2.11922 0.328829 0.530865 0.478949 0.616978 
39 1 -7.32701 -243.234 -5.27504 0.529503 0.747931 0.168956 0.362878 
35 1 7.72596 497.959 -2.15583 0.402846 0.300755 0.218185 0.836455 
36 1 250.228 -492.04 12.5211 0.774765 0.0280111 0.277314 0.567495 
37 1 -491.223 -250.422 6.34538 0.321377 0.345423 0.691112 0.547507 
40 1 247.299 -255.067 6.55693 0.775729 0.184189 0.348159 0.493056 
33 1 -499.045 -499.633 1.12895 0.276336 0.79741 0.424066 0.328548 
2 1 -246.929 -495.892 496.381 0.0943126 0.812767 0.525586 0.232968 
4 1 250.114 -497.531 493.811 0.62562 0.557727 0.521181 0.160969 
6 1 -246.665 -257.937 497.346 0.423442 0.730459 0.479942 0.238288 
7 1 -2.00222 -257.063 495.588 0.42696 0.798376 0.303672 0.296788 
8 1 263.798 -254.065 494.388 0.290107 0.0222015 0.405183 0.866702 
5 1 -498.732 -248.947 496.978 0.692479 0.268833 0.549128 0.382963 
10 1 -249.643 -3.12348 -499.629 0.448853 0.684417 0.22223 0.529828 
9 1 495.105 4.84837 495.075 0.544619 0.735099 0.0521677 0.400373 
13 1 499.888 247.161 497.568 0.727566 0.380321 0.483227 0.304132 
15 1 -2.26955 252.075 496.122 -0.00963169 0.47529 0.841759 0.255828 
16 1 248.523 243.959 499.999 0.145972 0.100749 0.262643 0.948452 
3 1 0.378488 494.745 498.363 0.437523 0.663188 0.0191991 0.606948 
ITEM: TIMESTEP
40000
ITEM: NUMBER OF ATOMS
40
ITEM: BOX BOUNDS pp pp pp
-5.0000000000000000e+02 5.0000000000000000e+02
-5.0000000000000000e+02 5.0000000000000000e+02
-5.0000000000000000e+02 5.0000000000000000e+02
ITEM: ATOMS id type x y z c_q[1] c_q[2] c_q[3] c_q[4] 
1 1 499.776 -497.291 -495.541 0.13517 0.664656 0.351863 0.6451 
5 1 -496.241 -253.036 -498.187 0.669263 0.254088 0.582572 0.384885 
10 1 -249.115 -5.07421 -490.069 0.420355 0.712483 0.215745 0.518771 
11 1 9.49958 -2.2653 -494.661 0.0355452 0.496983 0.638518 0.586548 
12 1 247.073 8.80932 -497.614 0.277678 0.24975 0.339904 0.863125 
13 1 -498.924 247.335 -498.286 0.744851 0.364237 0.509955 0.229072 
14 1 -246.281 251.749 -496.503 0.499646 0.170326 0.424462 0.735646 
16 1 245.533 245.584 -495.853 0.200812 0.0719448 0.25605 0.942835 
3 1 1.66932 494.637 -499.843 0.453002 0.666134 0.0311385 0.59168 
19 1 5.05948 -499.412 -251.278 0.106247 0.914209 0.173355 0.350544 
20 1 241.401 -488.134 -251.027 0.338821 0.751278 0.0911852 0.558988 
21 1 -498.531 -242.066 -245.041 -0.0534121 0.691162 0.186566 0.696158 
22 1 -245.127 -251.561 -251.027 -0.00161537 0.685437 0.523725 0.505851 
23 1 -6.92814 -243.614 -264.728 0.710755 0.346456 0.45939 0.404668 
24 1 253.254 -254.707 -249.473 0.69791 0.426154 0.38008 0.432266 
26 1 -242.743 -4.24091 -248.768 0.347315 0.381166 -0.0323836 0.856175 
25 1 -491.398 8.76555 -252.334 0.150966 0.296045 0.653476 0.680099 
27 1 0.442156 0.121278 -242.308 0.600319 0.22325 0.645113 0.41666 
28 1 254.598 0.817399 -249.276 0.321587 0.647779 0.631162 0.280355 
29 1 -491.3 251.239 -240.725 0.639761 0.174352 0.588623 0.462418 
30 1 -262.255 247.615 -247.066 0.925848 0.306526 0.212098 0.0621373 
31 1 -4.35421 237.398 -259.63 0.378401 0.689027 0.543367 0.294629 
32 1 261.127 251.452 -254.337 0.0772945 0.710162 0.606473 0.349122 
17 1 -498.54 495.436 -251.659 0.613002 0.280212 0.584067 0.4523 
18 1 -246.785 497.767 -247.431 0.732796 0.255172 0.33645 0.533572 
35 1 2.84503 -494.807 -0.945221 0.413511 0.35137 0.215331 0.811899 
38 1 -250.422 -248.839 -2.69411 0.353307 0.530476 0.483038 0.60037 
39 1 -6.22121 -243.24 -7.84376 0.536034 0.734538 0.135784 0.393299 
34 1 -260.301 -496.035 1.58204 0.585879 0.539047 0.415007 0.440391 
36 1 248.37 -498.601 7.42319 0.791132 -0.0313749 0.276316 0.544771 
33 1 498.183 -495.943 5.23465 0.322632 0.786561 0.409828 0.330562 
37 1 -493.176 -245.243 9.66165 0.326618 0.375973 0.66066 0.561689 
40 1 243.894 -257.206 12.1372 0.731592 0.154246 0.362707 0.55626 
2 1 -247.518 -497.188 495.409 0.0674906 0.811687 0.53122 0.233268 
4 1 244.328 -495.779 491.944 0.647921 0.543958 0.499774 0.185833 
6 1 -248.492 -256.386 496.444 0.439848 0.703914 0.476937 0.289085 
7 1 -4.21194 -259.597 490.789 0.398438 0.818934 0.325455 0.25431 
8 1 261.882 -258.194 493.463 0.259931 0.0271207 0.379888 0.887347 
9 1 496.301 4.91811 494.035 0.505953 0.743321 0.0922715 0.427752 
15 1 -3.75315 252.492 493.873 -0.0202466 0.462456 0.843003 0.273989 
ITEM: TIMESTEP
50000
ITEM: NUMBER OF ATOMS
40
ITEM: BOX BOUNDS pp pp pp
-5.0000000000000000e+02 5.0000000000000000e+02
-5.0000000000000000e+02 5.0000000000000000e+02
-5.0000000000000000e+02 5.0000000000000000e+02
ITEM: ATOMS id type x y z c_q[1] c_q[2] c_q[3] c_q[4] 
10 1 -245.946 -11.3608 -493.485 0.431263 0.708725 0.182627 0.527606 
11 1 11.1554 -4.98127 -493.509 0.0321512 0.461467 0.648455 0.604583 
14 1 -242.014 248.586 -495.241 0.489932 0.214261 0.475991 0.698206 
16 1 240.985 250.329 -499.5 0.200158 0.0910356 0.242389 0.944932 
1 1 498.386 499.059 -497.552 0.129179 0.618311 0.359305 0.686953 
19 1 3.63905 -499.894 -251.966 0.096774 0.89356 0.177641 0.400784 
20 1 240.114 -490.576 -254.827 0.307009 0.739237 0.110947 0.589038 
21 1 -498.944 -236.394 -243.311 -0.072009 0.687461 0.217298 0.689198 
22 1 -242.871 -253.899 -252.643 -0.084332 0.686874 0.545457 0.472831 
23 1 -3.21243 -244.886 -260.342 0.69877 0.411508 0.459538 0.362225 
24 1 253.393 -263.92 -247.838 0.712857 0.408504 0.378121 0.426596 
26 1 -235.4 -3.39627 -250.049 0.312146 0.424097 -0.0208707 0.849865 
27 1 1.93679 -1.98447 -239.166 0.626336 0.195437 0.64811 0.386602 
25 1 -493.911 4.88468 -252.774 0.106622 0.296352 0.684159 0.657824 
28 1 252.598 1.1289 -248.097 0.361402 0.662595 0.593616 0.279242 
29 1 -486.585 252.123 -236.935 0.651697 0.179411 0.568492 0.468956 
30 1 -263.905 247.851 -245.275 0.923207 0.327068 0.1984 0.0367748 
31 1 -8.62617 235.561 -263.887 0.357616 0.706118 0.545907 0.274763 
32 1 257.104 245.538 -255.431 0.10499 0.745167 0.562946 0.341752 
17 1 -499.509 496.364 -250.85 0.599978 0.284755 0.589636 0.459641 
18 1 -248.269 498.828 -249.519 0.764686 0.243603 0.254528 0.539563 
35 1 3.40869 -493.803 -2.24199 0.435986 0.35506 0.20575 0.800947 
38 1 -248.046 -250.276 -3.80358 0.319576 0.53697 0.482579 0.613719 
39 1 -3.62035 -246.559 -11.5083 0.518718 0.769407 0.0901403 0.361689 
34 1 -253.653 -492.863 2.2148 0.616875 0.547851 0.381777 0.416618 
36 1 246.231 -494.028 5.09942 0.809837 -0.0625539 0.224951 0.538189 
33 1 499.04 -493.657 3.21418 0.338048 0.810285 0.320258 0.355805 
37 1 -496.218 -244.379 12.6064 0.32749 0.407955 0.658284 0.541281 
40 1 244.152 -260.664 12.0672 0.694562 0.18921 0.399748 0.567437 
2 1 -248.094 -494.924 489.23 0.0623526 0.821686 0.521231 0.221952 
4 1 241.206 -492.595 492.068 0.656261 0.5492 0.498518 0.138493 
5 1 -494.448 -250.843 499.898 0.662208 0.206063 0.599146 0.400055 
6 1 -249.17 -257.076 494.668 0.471028 0.717138 0.457978 0.232599 
7 1 -8.22593 -253.232 495.301 0.385827 0.822743 0.32148 0.266236 
8 1 262.577 -259.762 495.509 0.269244 0.0110896 0.364948 0.891178 
12 1 242.882 10.0624 499.441 0.263822 0.222292 0.31271 0.884984 
9 1 -500.067 2.45636 492.87 0.519454 0.71587 0.0970088 0.456384 
15 1 -1.97175 250.909 496.329 -0.0291864 0.510556 0.829902 0.223032 
13 1 499.064 246.591 497.911 0.752099 0.364981 0.523275 0.165283 
3 1 -1.7318 495.431 496.89 0.476592 0.676721 0.00257788 0.561161 
ITEM: TIMESTEP
60000
ITEM: NUMBER OF ATOMS
40
ITEM: BOX BOUNDS pp pp pp
-5.0000000000000000e+02 5.0000000000000000e+02
-5.0000000000000000e+02 5.0000000000000000e+02
-5.0000000000000000e+02 5.0000000000000000e+02
ITEM: ATOMS id type x y z c_q[1] c_q[2] c_q[3] c_q[4] 
5 1 -493.016 -253.463 -499.022 0.661901 0.219486 0.600863 0.390739 
10 1 -246.032 -10.8276 -497.399 0.410196 0.702493 0.161876 0.558604 
11 1 6.96958 -12.9189 -493.453 0.0145597 0.412153 0.673514 0.613431 
12 1 248.731 8.21716 -499.02 0.261888 0.265418 0.325761 0.86882 
14 1 -240.162 247.313 -497.842 0.457805 0.204328 0.477157 0.721793 
16 1 239.177 250.265 -498.063 0.190146 0.141387 0.253624 0.937832 
1 1 -497.327 497.154 -494.525 0.107319 0.590506 0.398885 0.693308 
18 1 -246.998 -498.483 -251.526 0.745042 0.235357 0.231478 0.579601 
20 1 240.979 -491.585 -252.868 0.299097 0.7467 0.141641 0.576991 
21 1 -497.897 -232.575 -244.942 -0.0564002 0.659297 0.2013 0.722236 
22 1 -241.211 -256.037 -255.099 -0.0550979 0.676435 0.548136 0.488822 
23 1 3.16138 -245.178 -260.31 0.697093 0.40725 0.467003 0.360718 
24 1 248.849 -258.137 -250.498 0.708366 0.423073 0.357124 0.437823 
26 1 -241.597 -0.841855 -248.743 0.316626 0.441201 0.00711645 0.839666 
27 1 7.43418 1.05474 -238.746 0.601974 0.154344 0.654506 0.430613 
25 1 -489.154 9.28511 -253.521 0.0935557 0.273009 0.70388 0.64905 
28 1 254.16 4.0522 -246.457 0.349476 0.603118 0.647392 0.308219 
29 1 -487.343 251.333 -235.048 0.648328 0.192774 0.576259 0.458732 
30 1 -266.536 252.141 -247.297 0.930703 0.294167 0.215482 0.028724 
31 1 -10.9698 239.625 -264.928 0.366633 0.696652 0.533585 0.309102 
32 1 252.647 248.985 -256.088 0.106603 0.751203 0.503119 0.413765 
17 1 -499.72 495.756 -259.225 0.613656 0.272595 0.573933 0.468743 
19 1 1.12272 494.296 -252.446 0.0866993 0.904226 0.177581 0.37858 
35 1 1.78317 -492.931 -2.89549 0.428308 0.34335 0.200788 0.811386 
38 1 -247.947 -249.408 -5.16511 0.274452 0.563195 0.504611 0.594016 
39 1 -5.85612 -239.227 -13.8169 0.49637 0.761109 0.0378474 0.415809 
33 1 -497.494 -490.432 0.767177 0.309095 0.824682 0.31047 0.357726 
34 1 -258.309 -490.434 1.20885 0.580916 0.570263 0.398428 0.422601 
36 1 244.394 -493.231 6.51749 0.822035 -0.064624 0.200983 0.528856 
37 1 -496.33 -244.506 15.7542 0.342362 0.382804 0.631572 0.580832 
40 1 246.844 -263.868 7.26319 0.719313 0.189137 0.393034 0.540685 
2 1 -247.831 -493.85 491.652 0.0595426 0.818675 0.518539 0.239464 
4 1 235.138 -492.034 491.455 0.659945 0.573747 0.467833 0.128137 
6 1 -248.516 -258.74 490.142 0.467505 0.733163 0.430834 0.241439 
7 1 -6.39735 -244.474 489.75 0.414373 0.797312 0.314868 0.305691 
8 1 266.815 -262.226 497.337 0.286892 -0.0034376 0.366787 0.884957 
9 1 498.439 5.76669 487.237 0.520319 0.724627 0.0929167 0.442211 
15 1 -7.21958 248.683 500.155 0.001369 0.535551 0.817769 0.210801 
13 1 492.241 249.164 497.165 0.740256 0.368813 0.550185 0.115298 
3 1 8.97106 499.274 496.547 0.46895 0.700892 0.0194509 0.537083 
ITEM: TIMESTEP
70000
ITEM: NUMBER OF ATOMS
40
ITEM: BOX BOUNDS pp pp pp
-5.0000000000000000e+02 5.0000000000000000e+02
-5.0000000000000000e+02 5.0000000000000000e+02
-5.0000000000000000e+02 5.0000000000000000e+02
ITEM: ATOMS id type x y z c_q[1] c_q[2] c_q[3] c_q[4] 
1 1 498.474 -499.62 -495.214 0.0880239 0.594443 0.434296 0.671026 
5 1 -496.743 -259.319 -498.549 0.675569 0.215882 0.591729 0.383221 
10 1 -254.421 -13.1157 -494.206 0.419259 0.728718 0.164236 0.515964 
11 1 8.85658 -13.0535 -498.834 0.00579261 0.398401 0.666199 0.630414 
15 1 -3.92082 253.894 -498.961 0.000391058 0.522118 0.822534 0.225455 
18 1 -245.165 499.446 -250.097 0.751705 0.254313 0.225705 0.565086 
20 1 236.935 -495.615 -250.885 0.298635 0.752769 0.0979695 0.57841 
21 1 -498.764 -231.899 -249.49 -0.0713432 0.691402 0.214655 0.686146 
22 1 -239.448 -254.469 -257.129 -0.0758135 0.688997 0.528509 0.490117 
23 1 2.55473 -246.392 -264.761 0.727187 0.413714 0.430464 0.338735 
24 1 243.731 -259.617 -250.409 0.705686 0.487397 0.280301 0.431142 
26 1 -244.234 -1.78654 -248.217 0.318312 0.396714 -0.00212445 0.860983 
27 1 0.912845 -2.03707 -244.873 0.600058 0.186062 0.650799 0.426348 
25 1 -489.336 6.97217 -253.763 0.0498905 0.318631 0.703184 0.633655 
28 1 248.22 3.26807 -252.294 0.340316 0.592725 0.656606 0.318951 
29 1 -489.984 251.652 -231.198 0.602153 0.219845 0.627611 0.441798 
30 1 -264.042 255.67 -243.901 0.915508 0.308595 0.258001 0.00701323 
31 1 -11.9 242.21 -264.432 0.333801 0.701441 0.551274 0.304391 
32 1 254.448 248.02 -252.022 0.124386 0.762939 0.485883 0.407885 
17 1 -499.675 499.173 -262.739 0.630928 0.263775 0.558007 0.470086 
19 1 5.35591 498.126 -256.978 0.08369 0.913929 0.161843 0.362679 
35 1 -3.2007 -493.128 -6.23422 0.446608 0.368563 0.115284 0.807101 
38 1 -249.003 -249.809 -1.85505 0.268962 0.548808 0.524374 0.592875 
39 1 -6.05486 -243.858 -14.0101 0.479834 0.733463 0.0356713 0.480123 
34 1 -254.535 -486.198 1.91417 0.566291 0.558957 0.433634 0.422899 
36 1 248.305 -493.381 6.1236 0.79795 -0.0534602 0.213901 0.560949 
33 1 497.73 -493.006 3.4012 0.314412 0.842173 0.26746 0.346922 
37 1 -498.971 -244.079 11.1547 0.384733 0.370416 0.607183 0.588303 
40 1 246.252 -264.362 6.11218 0.679509 0.189406 0.412946 0.576081 
2 1 -247.815 -494.216 491.566 0.0414845 0.806249 0.530291 0.258909 
4 1 234.411 -490.311 491.937 0.644341 0.559001 0.50702 0.123585 
6 1 -255.691 -259.923 486.535 0.448369 0.734556 0.436242 0.262839 
7 1 -5.25509 -243.408 494.37 0.357543 0.833862 0.301143 0.293514 
8 1 269.992 -264.546 497.996 0.286912 -0.00333564 0.387829 0.875934 
12 1 243.485 3.30785 498.722 0.249564 0.251466 0.358077 0.863865 
9 1 495.348 6.81564 490.125 0.478626 0.727714 0.118163 0.476852 
14 1 -237.835 249.124 -499.942 0.449703 0.191744 0.471245 0.734118 
16 1 235.352 249.273 499.868 0.199499 0.130351 0.223099 0.945217 
13 1 492.537 247.496 496.295 0.698432 0.384124 0.593684 0.110369 
3 1 9.09907 496.654 493.83 0.425484 0.734565 0.0305407 0.527679 
ITEM: TIMESTEP
80000
ITEM: NUMBER OF ATOMS
40
ITEM: BOX BOUNDS pp pp pp
-5.0000000000000000e+02 5.0000000000000000e+02
-5.0000000000000000e+02 5.0000000000000000e+02
-5.0000000000000000e+02 5.0000000000000000e+02
ITEM: ATOMS id type x y z c_q[1] c_q[2] c_q[3] c_q[4] 
3 1 12.5108 499.405 -498.854 0.435211 0.736999 0.0184133 0.516802 
5 1 -498.332 -259.28 -494.848 0.665976 0.217345 0.60649 0.376041 
8 1 268.782 -262.409 -493.721 0.290986 -0.050052 0.395285 0.869811 
10 1 -252.455 -15.8564 -493.585 0.425151 0.736997 0.14606 0.504726 
11 1 1.90243 -9.72579 -500.284 0.0160363 0.404435 0.646383 0.64681 
12 1 242.423 5.96606 -497.143 0.185027 0.284211 0.378943 0.861041 
13 1 493.018 251.06 -496.475 0.676279 0.380305 0.627589 0.0644046 
1 1 -497.394 499.231 -499.007 0.108593 0.577495 0.457884 0.66712 
18 1 -244.775 -498.064 -252.222 0.754681 0.251236 0.200489 0.571963 
20 1 237.401 -497.405 -254.567 0.263172 0.714873 0.160962 0.627526 
21 1 -494.265 -230.682 -246.396 -0.0736849 0.687769 0.262696 0.672707 
22 1 -240.103 -258.722 -251.824 -0.119344 0.725428 0.47875 0.479905 
23 1 1.9506 -246.795 -265.936 0.721266 0.404855 0.463583 0.317739 
24 1 247.943 -265.249 -251.197 0.708176 0.467148 0.280868 0.448745 
26 1 -240.466 -6.18467 -248.309 0.35457 0.372524 -0.0190337 0.857406 
27 1 0.748431 -4.81336 -246.679 0.5469 0.209743 0.692895 0.420483 
25 1 -484.942 6.58221 -251.482 0.0127352 0.274534 0.7171 0.640497 
28 1 248.869 5.17025 -255.641 0.321765 0.542246 0.687939 0.35941 
29 1 -489.739 249.213 -230.492 0.574413 0.208345 0.65886 0.438801 
30 1 -260.379 257.127 -240.727 0.918134 0.293279 0.265208 -0.0261293 
31 1 -12.723 238.268 -269.749 0.363973 0.740366 0.490028 0.281521 
32 1 261.573 250.573 -252.403 0.170621 0.729039 0.496449 0.439237 
19 1 4.41835 495.378 -255.525 0.119938 0.924923 0.129639 0.336639 
17 1 497.554 499.237 -261.648 0.602201 0.282439 0.569211 0.483303 
34 1 -250.165 -491.129 -0.835963 0.574779 0.540026 0.440207 0.429207 
35 1 0.0157904 -491.844 -5.51885 0.490086 0.373661 0.127555 0.777124 
39 1 -15.7743 -242.19 -8.47186 0.478958 0.719185 0.0360537 0.502068 
33 1 -499.646 -491.442 0.878091 0.313892 0.877013 0.216067 0.292635 
36 1 248.958 -492.756 3.63418 0.791718 -0.00679343 0.261616 0.55199 
38 1 -247.406 -249.277 2.3862 0.257923 0.543965 0.555669 0.57342 
40 1 245.348 -266.201 9.67331 0.655578 0.160171 0.402685 0.618391 
37 1 497.732 -248.882 7.19403 0.304899 0.330965 0.63452 0.628397 
2 1 -240.494 -494.135 487.671 0.0638465 0.839414 0.490239 0.225773 
4 1 234.794 -494.355 488.292 0.660506 0.569452 0.470881 0.133144 
6 1 -261.38 -260.951 484.188 0.421149 0.756858 0.442841 0.231714 
7 1 -2.55291 -240.332 490.452 0.336354 0.8358 0.349068 0.25779 
9 1 499.451 0.425985 495.448 0.502598 0.711879 0.11548 0.476748 
14 1 -240.745 253.207 -499.451 0.404616 0.193634 0.537775 0.713856 
15 1 -7.61277 253.328 499.016 0.0148059 0.520774 0.83112 0.194462 
16 1 231.818 246.316 -500.413 0.171899 0.161688 0.195609 0.951864 
ITEM: TIMESTEP
90000
ITEM: NUMBER OF ATOMS
40
ITEM: BOX BOUNDS pp pp pp
-5.0000000000000000e+02 5.0000000000000000e+02
-5.0000000000000000e+02 5.0000000000000000e+02
-5.0000000000000000e+02 5.0000000000000000e+02
ITEM: ATOMS id type x y z c_q[1] c_q[2] c_q[3] c_q[4] 
3 1 21.3231 -499.495 -496.213 0.434709 0.729764 0.0399484 0.526191 
8 1 268.206 -258.55 -497.437 0.30166 -0.0670927 0.409667 0.858296 
10 1 -251.099 -18.8156 -491.343 0.409836 0.781538 0.151496 0.445288 
12 1 238.087 -0.431218 -495.956 0.202339 0.302328 0.381709 0.849679 
15 1 -6.17271 255.976 499.597 0.0294717 0.566411 0.795116 0.214713 
13 1 492.238 252.736 -494.865 0.639945 0.405787 0.646132 0.091217 
18 1 -247.972 -499.695 -248.639 0.747262 0.25051 0.190036 0.585431 
17 1 498.047 -498.409 -260.683 0.603003 0.299234 0.52219 0.523607 
21 1 -495.848 -230.024 -245.349 -0.0381019 0.671333 0.242836 0.699208 
22 1 -236.384 -253.626 -252.005 -0.114816 0.71721 0.480683 0.491295 
23 1 3.5245 -249.154 -264.248 0.725964 0.412118 0.483339 0.263662 
24 1 245.152 -268.375 -250.2 0.710202 0.496964 0.295055 0.401973 
26 1 -241.588 -9.41393 -245.155 0.33566 0.371409 0.0151495 0.865539 
27 1 2.0651 -6.4018 -249.831 0.545481 0.198325 0.690375 0.431857 
25 1 -482.798 3.95225 -254.837 0.0515048 0.347611 0.68531 0.637859 
28 1 243.011 2.83042 -255.205 0.291941 0.541754 0.701534 0.359336 
29 1 -489.349 243.152 -233.551 0.578371 0.20494 0.650379 0.447765 
30 1 -255.892 256.242 -241.151 0.921611 0.279214 0.269576 0.00105935 
31 1 -14.7834 237.809 -270.78 0.362563 0.756259 0.481355 0.254791 
32 1 259.68 253.424 -256.379 0.1773 0.725622 0.51207 0.424054 
19 1 5.45096 499.241 -255.749 0.135981 0.912362 0.128252 0.364221 
20 1 234.639 497.714 -257.993 0.234756 0.7322 0.159067 0.61925 
34 1 -249.701 -492.434 -0.42112 0.579455 0.526193 0.426556 0.453214 
33 1 496.791 -492.304 -3.08204 0.351564 0.869408 0.194029 0.287898 
39 1 -17.9723 -241.491 -9.76691 0.526464 0.702355 0.0155335 0.478845 
35 1 -4.94511 -490.337 0.234192 0.520419 0.346508 0.0740727 0.776923 
36 1 252.817 -486.856 3.24757 0.805162 -0.00541665 0.263024 0.531511 
38 1 -246.829 -249.182 4.70576 0.27849 0.521916 0.558463 0.58152 
40 1 248.455 -261.812 15.5073 0.669024 0.116921 0.382445 0.626476 
37 1 497.249 -250.651 3.99887 0.367543 0.358099 0.587308 0.625897 
2 1 -237.904 -494.842 485.713 0.0943581 0.780421 0.562272 0.256692 
4 1 239.089 -498.268 491.37 0.642427 0.562645 0.490012 0.174947 
5 1 499.121 -259.17 497.703 0.671372 0.206383 0.622127 0.345866 
6 1 -265.586 -264.024 484.759 0.464955 0.738388 0.427019 0.23718 
7 1 -3.30875 -243.269 492.872 0.393404 0.829487 0.315714 0.23981 
9 1 -499.873 -0.827008 497.822 0.450083 0.763523 0.173412 0.429403 
11 1 -0.488283 -6.42195 493.9 -0.046035 0.437339 0.661852 0.607097 
14 1 -242.456 253.363 497.672 0.392629 0.22326 0.54546 0.706025 
16 1 230.677 245.248 495.894 0.147159 0.17337 0.171333 0.958609 
1 1 -498.053 498.56 498.904 0.152418 0.561734 0.434471 0.687356 
ITEM: TIMESTEP
100000
ITEM: NUMBER OF ATOMS
40
ITEM: BOX BOUNDS pp pp pp
-5.0000000000000000e+02 5.0000000000000000e+02
-5.0000000000000000e+02 5.0000000000000000e+02
-5.0000000000000000e+02 5.0000000000000000e+02
ITEM: ATOMS id type x y z c_q[1] c_q[2] c_q[3] c_q[4] 
3 1 18.2721 -495.316 -497.118 0.418468 0.704696 0.0552055 0.570298 
8 1 267.919 -260.043 -495.948 0.307403 -0.075615 0.410946 0.854932 
10 1 -250.615 -16.6922 -491.155 0.406728 0.791145 0.172668 0.422903 
12 1 237.071 -4.84725 -492.48 0.192371 0.333549 0.419263 0.822166 
15 1 -0.227385 252.191 -496.152 0.00250075 0.596821 0.772202 0.217949 
16 1 231.68 246.33 -499.333 0.161239 0.19754 0.168013 0.952235 
13 1 494.753 251.164 -493.546 0.639415 0.403612 0.64504 0.110314 
19 1 3.31016 -496.433 -260.191 0.128995 0.926597 0.166447 0.311566 
17 1 499.62 -499.983 -261.102 0.66245 0.273822 0.4874 0.498622 