ITEM: TIMESTEP
0
ITEM: NUMBER OF ATOMS
35
ITEM: BOX BOUNDS pp pp pp
-5.0000000000000000e+02 5.0000000000000000e+02
-5.0000000000000000e+02 5.0000000000000000e+02
-5.0000000000000000e+02 5.0000000000000000e+02
ITEM: ATOMS id type x y z c_q[1] c_q[2] c_q[3] c_q[4] 
1 1 -500 -500 -500 0.622741 0.448873 0.631175 0.111019 
2 1 -250 -500 -500 0.728406 0.303155 0.136435 0.599088 
3 1 0 -500 -500 0.489115 0.398712 0.769297 0.099884 
4 1 250 -500 -500 0.268212 0.73301 0.084401 0.619383 
5 1 -500 -250 -500 0.837133 0.506729 0.11169 0.173089 
6 1 -250 -250 -500 0.593476 0.768677 0.193257 0.139908 
7 1 0 -250 -500 0.18524 0.196569 0.937127 0.220995 
8 1 250 -250 -500 0.659795 0.446559 0.371377 0.476796 
9 1 -500 0 -500 0.776318 0.355159 0.284589 0.436121 
10 1 -250 0 -500 0.549633 0.513202 0.644098 0.140231 
11 1 0 0 -500 0.719866 0.315271 0.617119 0.039521 
12 1 250 0 -500 0.28578 0.372426 0.531733 0.704904 
13 1 -500 250 -500 0.182829 0.604978 0.734535 0.247049 
14 1 -250 250 -500 0.244715 0.539582 0.535887 0.601491 
15 1 0 250 -500 0.312519 0.488088 0.810967 0.080219 
16 1 250 250 -500 0.600252 0.403939 0.192926 0.662805 
17 1 -500 -500 -250 0.549576 0.360836 0.533825 0.531784 
18 1 -250 -500 -250 0.29266 0.675205 0.278318 0.617242 
19 1 0 -500 -250 0.386286 0.832939 0.089907 0.385891 
20 1 250 -500 -250 0.145289 0.602413 0.715955 0.321555 
21 1 -500 -250 -250 0.452164 0.445547 0.33991 0.693899 
22 1 -250 -250 -250 0.736444 0.538182 0.211362 0.351192 
23 1 0 -250 -250 0.281983 0.58563 0.756484 0.072486 
24 1 250 -250 -250 0.373012 0.451115 0.000528 0.810776 
25 1 -500 0 -250 0.127045 0.582446 0.219458 0.772305 
26 1 -250 0 -250 0.823319 0.48559 0.285158 0.070944 
27 1 0 0 -250 0.61254 0.629103 0.157007 0.452076 
28 1 250 0 -250 0.158056 0.509851 0.578072 0.617173 
29 1 -500 250 -250 0.686823 0.715915 0.082723 0.094322 
30 1 -250 250 -250 0.683618 0.700263 0.021868 0.204501 
31 1 0 250 -250 0.176136 0.370353 0.368201 0.834412 
32 1 250 250 -250 0.149201 0.811915 0.529638 0.194979 
33 1 -500 -500 0 0.092702 0.854061 0.00483 0.511823 
34 1 -250 -500 0 0.235693 0.15037 0.763915 0.581611 
35 1 0 -500 0 0.549661 0.0878711 0.5831 0.59173 
ITEM: TIMESTEP
10000
ITEM: NUMBER OF ATOMS
35
ITEM: BOX BOUNDS pp pp pp
-5.0000000000000000e+02 5.0000000000000000e+02
-5.0000000000000000e+02 5.0000000000000000e+02
-5.0000000000000000e+02 5.0000000000000000e+02
ITEM: ATOMS id type x y z c_q[1] c_q[2] c_q[3] c_q[4] 
4 1 250.638 -496.65 -498.906 0.221446 0.765593 0.125255 0.59088 
8 1 243.618 -248.891 -496.316 0.636527 0.445267 0.373346 0.507132 
5 1 -499.467 -252.293 -497.949 0.820371 0.511969 0.166857 0.192451 
11 1 1.49705 -2.62106 -496.608 0.711003 0.305097 0.624472 0.106894 
12 1 250.809 -1.67179 -497.502 0.304936 0.343605 0.550547 0.697028 
10 1 -253.279 7.61205 499.619 0.547038 0.513167 0.64828 0.130927 
9 1 497.164 2.00097 -496.771 0.781433 0.357223 0.221085 0.461386 
13 1 -498.902 254.735 -493.435 0.171178 0.595965 0.74107 0.257564 
14 1 -252.592 254.194 -499.02 0.232153 0.554324 0.521728 0.6055 
15 1 0.857965 246.51 -499.38 0.296316 0.4762 0.823536 0.0849637 
2 1 -252.242 -499.711 -495.009 0.714919 0.2837 0.0856002 0.633307 
1 1 499.856 496.42 499.118 0.639919 0.454351 0.60036 0.153741 
18 1 -250.59 -492.291 -247.925 0.296517 0.611006 0.325889 0.657681 
21 1 -499.328 -249.894 -248.08 0.474759 0.460463 0.302166 0.686494 
22 1 -254.631 -249.853 -249.947 0.748171 0.54091 0.20108 0.327452 
23 1 -2.4418 -248.403 -250.817 0.305445 0.570921 0.760856 0.0430265 
24 1 248.376 -248.576 -251.962 0.362331 0.46801 0.00332458 0.806022 
26 1 -254.604 -3.1851 -255.548 0.829662 0.476286 0.284848 0.060611 
27 1 -1.55555 -2.35904 -245.584 0.611746 0.628123 0.191282 0.441181 
28 1 250.383 -1.02047 -250.914 0.171445 0.482182 0.600824 0.614098 
25 1 -497.715 3.76913 -251.992 0.0932125 0.607122 0.227269 0.755687 
30 1 -251.048 249.54 -249.433 0.689671 0.69206 0.0205418 0.212096 
31 1 5.05343 245.137 -249.477 0.143794 0.384021 0.372971 0.832312 
32 1 247.661 251.217 -249.274 0.155891 0.825589 0.493032 0.225878 
29 1 498.104 250.364 -245.842 0.698049 0.702499 0.0995736 0.0964786 
19 1 0.731012 495.022 -246.856 0.3461 0.821148 0.113995 0.439245 
20 1 243.024 498.746 -245.521 0.104188 0.55179 0.768252 0.307347 
17 1 494.717 494.348 -255.995 0.56159 0.373069 0.534735 0.509406 
34 1 -247.196 -497.624 -4.22385 0.177467 0.117982 0.776402 0.593115 
33 1 -498.116 -496.163 2.11669 0.099715 0.839391 0.0191664 0.533959 
35 1 -2.30077 -493.891 -2.3806 0.528271 0.0989657 0.580851 0.611348 
6 1 -254.78 -248.47 497.057 0.554461 0.790763 0.236644 0.106144 
7 1 0.38561 -249.519 498.664 0.186884 0.174827 0.946189 0.198082 
16 1 248.938 247.503 496.364 0.633672 0.398135 0.171563 0.640714 
3 1 -4.84293 495.573 494.513 0.479633 0.414646 0.770642 0.0642786 
ITEM: TIMESTEP
20000
ITEM: NUMBER OF ATOMS
35
ITEM: BOX BOUNDS pp pp pp
-5.0000000000000000e+02 5.0000000000000000e+02
-5.0000000000000000e+02 5.0000000000000000e+02
-5.0000000000000000e+02 5.0000000000000000e+02
ITEM: ATOMS id type x y z c_q[1] c_q[2] c_q[3] c_q[4] 
4 1 250.578 -494.825 -497.446 0.197449 0.777378 0.115512 0.585964 
5 1 -498.511 -248.789 -498.717 0.819363 0.507779 0.134823 0.229405 
7 1 3.20345 -246.181 -494.606 0.21809 0.172219 0.937197 0.210806 
8 1 244.226 -255.475 -494.525 0.63887 0.436292 0.377549 0.508872 
9 1 -498.952 2.73275 -497.249 0.787464 0.331843 0.210587 0.474799 
12 1 253.398 0.525475 -491.571 0.262323 0.324274 0.518865 0.746198 
13 1 -493.214 256.926 -491.383 0.143248 0.557696 0.774858 0.260863 
14 1 -256.167 254.488 -497.252 0.248431 0.58016 0.508097 0.586117 
15 1 0.711019 245.91 -496.607 0.302618 0.493152 0.81373 0.0553789 
18 1 -253.393 -496.57 -243.53 0.297926 0.582261 0.33706 0.677202 
20 1 245.229 499.228 -241.803 0.087943 0.551175 0.765035 0.321237 
21 1 -499.62 -242.945 -249.681 0.438143 0.448062 0.285379 0.725142 
22 1 -258.909 -248.554 -249.423 0.771854 0.544567 0.175643 0.277195 
23 1 -1.69859 -248.868 -253.777 0.318101 0.620314 0.71544 0.0465614 
24 1 247.721 -248.864 -258.031 0.367078 0.432442 0.0253592 0.823168 
26 1 -256.36 -0.809234 -254.224 0.820852 0.495303 0.278998 0.0551157 
27 1 1.74825 -2.17563 -244.553 0.610652 0.601764 0.162904 0.48831 
28 1 250.644 -8.313 -248.472 0.171359 0.481675 0.617953 0.597293 
25 1 -494.336 2.52617 -252.852 0.103667 0.620126 0.236728 0.740714 
29 1 -492.78 252.522 -247.116 0.673938 0.717205 0.119997 0.130482 
30 1 -251.873 250.762 -248.478 0.703142 0.676661 0.042533 0.214271 
31 1 2.24184 248.673 -260.824 0.152128 0.327876 0.338344 0.868837 
32 1 246.787 251.512 -248.896 0.169707 0.796989 0.533768 0.226053 
19 1 -5.47119 497.958 -242.954 0.340486 0.79225 0.140702 0.486428 
17 1 493.273 494.228 -253.739 0.536236 0.425171 0.526462 0.504498 
35 1 -8.32362 -496.399 -1.31526 0.533204 0.0246993 0.550936 0.641524 
34 1 -248.091 497.901 -3.94344 0.13123 0.157809 0.775789 0.59668 
33 1 499.418 -495.989 6.77834 0.0716343 0.839164 0.032767 0.538144 
2 1 -252.154 -493.033 498.7 0.724515 0.256698 0.119951 0.628328 
6 1 -251.59 -249.681 496.339 0.556408 0.791148 0.229963 0.107759 
11 1 4.90283 -0.730519 496.489 0.708753 0.311853 0.61582 0.145542 
10 1 -253.227 15.0467 497.04 0.598615 0.511985 0.589247 0.179777 
16 1 247.483 243.434 498.13 0.640261 0.404298 0.201514 0.621289 
3 1 -8.41338 499.54 490.925 0.461948 0.403897 0.789133 0.0272095 
1 1 -499.282 496.74 498.235 0.629444 0.459652 0.607118 0.154685 
ITEM: TIMESTEP
30000
ITEM: NUMBER OF ATOMS
35
ITEM: BOX BOUNDS pp pp pp
-5.0000000000000000e+02 5.0000000000000000e+02
-5.0000000000000000e+02 5.0000000000000000e+02
-5.0000000000000000e+02 5.0000000000000000e+02
ITEM: ATOMS id type x y z c_q[1] c_q[2] c_q[3] c_q[4] 
4 1 255.003 -495.5 -496.136 0.214959 0.801634 0.0497866 0.555605 
7 1 4.09282 -244.267 -498.487 0.196099 0.16716 0.937876 0.23236 
8 1 240.905 -260.408 -492.937 0.663976 0.428148 0.373201 0.486361 
12 1 253.888 2.89632 -490.836 0.272737 0.328706 0.508697 0.747525 
13 1 -491.527 256.224 -492.015 0.146227 0.528252 0.795303 0.258961 
14 1 -254.647 253.589 -496.081 0.29227 0.566377 0.475683 0.606236 
15 1 -1.10889 239.998 -495.426 0.397151 0.518513 0.749455 0.108319 
18 1 -256.903 -498.609 -244.707 0.29523 0.591877 0.344262 0.666337 
22 1 -259.36 -247.103 -250.285 0.755355 0.548973 0.205588 0.292919 
23 1 -1.45851 -254.91 -252.003 0.331224 0.588189 0.732723 0.0862641 
24 1 254.105 -252.599 -258.334 0.375284 0.442275 -0.0042792 0.814577 
21 1 498.109 -240.233 -249.545 0.458316 0.481749 0.296105 0.685701 
27 1 5.45037 -7.69483 -247.843 0.585824 0.625927 0.170963 0.485589 
28 1 253.725 -5.16319 -247.263 0.187948 0.465632 0.626984 0.595612 
25 1 -494.267 1.6954 -245.429 0.132764 0.612545 0.200306 0.753021 
26 1 -257.233 1.16724 -255.396 0.844419 0.456001 0.27443 0.0609006 
29 1 -495.542 252.813 -245.299 0.684896 0.71846 0.0882491 0.0833333 
30 1 -254.391 256.099 -242.773 0.681769 0.687283 0.111 0.224747 
31 1 1.52839 244.198 -255.429 0.12786 0.319487 0.319611 0.882853 
32 1 248.924 251.644 -248.528 0.190909 0.790913 0.518264 0.263462 
19 1 -4.32505 499.208 -250.851 0.349164 0.793296 0.195679 0.458777 
20 1 242.445 498.247 -242.941 0.0649673 0.590984 0.718259 0.361417 
17 1 495.532 487.994 -248.337 0.546357 0.43314 0.512856 0.500862 
34 1 -246.649 -497.785 -4.82979 0.111488 0.163437 0.766768 0.610676 
33 1 -497.399 -491.744 6.95054 0.0881038 0.835119 0.0157376 0.54274 
35 1 -9.26083 -497.577 3.88156 0.528568 0.0286932 0.600126 0.599701 
2 1 -248.347 -489.387 495.801 0.74056 0.228265 0.10191 0.623764 
6 1 -251.259 -258.616 497.285 0.54683 0.798056 0.219634 0.125875 
5 1 498.584 -246.096 495.169 0.801698 0.521009 0.185783 0.226526 
9 1 -498.463 6.62614 497.022 0.801901 0.357992 0.242067 0.412554 
10 1 -248.819 19.4035 494.668 0.623334 0.471964 0.605301 0.149386 
11 1 5.11089 2.33348 490.22 0.702995 0.341882 0.60264 0.160437 
16 1 247.156 244.718 495.797 0.629274 0.419511 0.22796 0.613236 
1 1 -499.094 492.288 -498.3 0.602278 0.449023 0.622987 0.218007 
3 1 -3.96107 499.583 485.976 0.453444 0.367301 0.811909 0.0168085 
ITEM: TIMESTEP
40000
ITEM: NUMBER OF ATOMS
35
ITEM: BOX BOUNDS pp pp pp
-5.0000000000000000e+02 5.0000000000000000e+02
-5.0000000000000000e+02 5.0000000000000000e+02
-5.0000000000000000e+02 5.0000000000000000e+02
ITEM: ATOMS id type x y z c_q[1] c_q[2] c_q[3] c_q[4] 
4 1 250.696 -491.65 -494.484 0.185694 0.777129 0.0377934 0.600134 
8 1 239.063 -264.517 -491.309 0.639295 0.4045 0.404063 0.514212 
12 1 248.821 1.47479 -485.727 0.281955 0.30709 0.512173 0.750917 
13 1 -487.028 254.332 -487.862 0.153139 0.526622 0.801688 0.237728 
14 1 -257.216 254.469 -493.2 0.326916 0.567116 0.465263 0.595849 
15 1 -1.70377 240.153 -494.673 0.368905 0.49613 0.77145 0.150431 
1 1 499.399 494.163 -497.353 0.644862 0.41531 0.59787 0.232856 
18 1 -259.238 498.531 -244.732 0.32099 0.562377 0.376724 0.662402 
22 1 -263.779 -239.263 -253.594 0.771546 0.524337 0.16764 0.31888 
23 1 -7.54118 -258.847 -251.435 0.328517 0.55758 0.752371 0.122962 
24 1 252.987 -256.971 -257.889 0.358859 0.453115 -0.0463407 0.814715 
21 1 495.609 -237.718 -244.345 0.467982 0.489263 0.321826 0.661848 
27 1 3.77402 0.814794 -254.806 0.59766 0.620709 0.126139 0.49154 
28 1 253.436 -13.3564 -244.533 0.190316 0.501523 0.620246 0.57232 
25 1 -493.55 -0.880784 -245.525 0.0744464 0.624394 0.178562 0.756773 
26 1 -256.998 1.4121 -253.23 0.846957 0.465045 0.257339 0.0131942 
30 1 -253.642 255.635 -241.88 0.684393 0.694063 0.126608 0.183992 
31 1 4.7824 238.874 -257.373 0.148034 0.292484 0.333816 0.883802 
32 1 251.77 253.242 -242.625 0.20711 0.77438 0.517828 0.298822 
29 1 498.722 248.91 -244.201 0.725909 0.674292 0.104888 0.0859306 
19 1 -2.13593 499.424 -252.622 0.309763 0.807434 0.21224 0.455028 
20 1 243.113 496.516 -245.376 0.0933925 0.570335 0.730816 0.363185 
17 1 490.31 485.945 -251.34 0.567616 0.448326 0.487512 0.489027 
34 1 -243.708 -496.58 -8.64721 0.0427278 0.168863 0.784688 0.594915 
33 1 498.113 -485.919 4.04517 0.125864 0.851708 -0.0516452 0.506047 
35 1 -8.46176 499.035 4.88021 0.525909 0.0367673 0.583979 0.617281 
2 1 -246.449 -488.649 494.271 0.776975 0.238017 0.0883502 0.576065 
3 1 -3.67138 -498.408 483.786 0.41566 0.364993 0.83296 -0.0135894 
5 1 -494.968 -245.93 493.177 0.822286 0.486708 0.153104 0.25203 
6 1 -249.939 -258.414 495.854 0.552879 0.78225 0.264254 0.112163 
7 1 5.90154 -243.542 498.199 0.210698 0.16505 0.930237 0.251046 
11 1 6.50197 -1.13562 490.926 0.716582 0.338664 0.596251 0.127679 
9 1 -496.708 9.30578 496.53 0.803666 0.348532 0.226909 0.425628 
10 1 -253.385 20.2147 494.708 0.670907 0.479263 0.542673 0.1603 
16 1 246.122 244.161 489.26 0.630383 0.410618 0.248119 0.610284 
ITEM: TIMESTEP
50000
ITEM: NUMBER OF ATOMS
35
ITEM: BOX BOUNDS pp pp pp
-5.0000000000000000e+02 5.0000000000000000e+02
-5.0000000000000000e+02 5.0000000000000000e+02
-5.0000000000000000e+02 5.0000000000000000e+02
ITEM: ATOMS id type x y z c_q[1] c_q[2] c_q[3] c_q[4] 
4 1 251.451 -493.644 -493.108 0.161321 0.759678 0.0220191 0.629587 
7 1 7.54256 -239.536 -498.695 0.216523 0.0907134 0.935989 0.262324 
8 1 236.652 -263.973 -491.03 0.638813 0.401284 0.402292 0.5187 
12 1 249.123 3.2232 -489.767 0.275495 0.324401 0.529693 0.733684 
13 1 -490.373 253.518 -485.039 0.153323 0.550006 0.783531 0.245082 
14 1 -259.569 252.572 -490.59 0.311794 0.593542 0.459338 0.582668 
15 1 -2.41443 242.257 -495.945 0.397818 0.47849 0.774789 0.11176 
19 1 5.72639 -498.616 -255.506 0.364588 0.790107 0.184286 0.456996 
22 1 -265.057 -237.667 -258.473 0.773255 0.490216 0.137103 0.378111 
23 1 -2.12088 -266.114 -250.128 0.333291 0.511077 0.781644 0.129421 
24 1 254.213 -252.892 -258.436 0.331723 0.454533 -0.0568413 0.824699 
21 1 496.241 -231.294 -242.776 0.467906 0.49044 0.329959 0.657009 
28 1 251.449 -14.478 -238.324 0.21025 0.475845 0.636531 0.56938 
25 1 -495.692 5.65099 -245.842 0.143796 0.596149 0.167492 0.77193 
26 1 -263.342 1.00582 -257.081 0.846312 0.480117 0.228803 0.0298636 
27 1 5.67662 1.9478 -258.246 0.618546 0.626916 0.0991677 0.463188 
30 1 -255.262 259.708 -245.754 0.67121 0.708812 0.125768 0.176762 
31 1 7.14218 239.114 -256.978 0.143377 0.29925 0.330057 0.883716 
32 1 247.095 255.369 -240.836 0.20197 0.775379 0.516449 0.30212 
29 1 497.523 247.624 -243.914 0.720918 0.687121 0.0633848 0.0642238 
18 1 -251.464 499.674 -241.752 0.339251 0.514383 0.386368 0.686322 
20 1 238.618 -500.12 -253.343 0.119109 0.57535 0.732727 0.343359 
17 1 484.691 487.983 -246.28 0.56666 0.435874 0.510248 0.478076 
34 1 -240.787 -498.023 -7.12923 0.0684808 0.162297 0.774295 0.607814 
35 1 -2.96443 -495.648 2.72618 0.528271 0.00391343 0.590273 0.610321 
33 1 496.235 -485.673 4.75363 0.0762379 0.896081 -0.0131721 0.437095 
2 1 -244.898 -484.537 492.998 0.811438 0.238471 0.0617318 0.52999 
3 1 0.598578 -494.584 483.804 0.465809 0.365828 0.804826 -0.0380499 
5 1 -497.714 -247.657 490.208 0.819534 0.495911 0.158413 0.239462 
6 1 -249.552 -262.551 493.918 0.546384 0.782376 0.274495 0.118341 
9 1 -497.583 7.65867 496.967 0.797988 0.34279 0.244809 0.43102 
10 1 -252.343 15.0437 497.352 0.657023 0.473402 0.567967 0.147054 
11 1 6.53217 0.445369 485.484 0.705829 0.3507 0.598716 0.142669 
16 1 243.42 247.317 484.938 0.650899 0.372639 0.215238 0.625415 
1 1 -497.379 494.751 499.386 0.643089 0.431779 0.5961 0.211349 
ITEM: TIMESTEP
60000
ITEM: NUMBER OF ATOMS
35
ITEM: BOX BOUNDS pp pp pp
-5.0000000000000000e+02 5.0000000000000000e+02
-5.0000000000000000e+02 5.0000000000000000e+02
-5.0000000000000000e+02 5.0000000000000000e+02
ITEM: ATOMS id type x y z c_q[1] c_q[2] c_q[3] c_q[4] 
4 1 260.197 -495.39 -496.252 0.159976 0.724451 0.026062 0.669999 
8 1 231.294 -264.039 -493.251 0.634543 0.425419 0.365663 0.531661 
12 1 247.599 1.60933 -488.828 0.28238 0.287745 0.52286 0.751053 
13 1 -492.957 251.145 -480.986 0.17669 0.525069 0.783498 0.281451 
14 1 -258.65 254.737 -491.169 0.32925 0.590324 0.416412 0.60804 
15 1 -8.63311 242.2 -499.772 0.411234 0.430319 0.787739 0.158681 
1 1 -498.024 493.546 -499.496 0.637907 0.448865 0.59379 0.197504 
19 1 11.9974 -496.915 -259.419 0.35949 0.771983 0.143734 0.504133 
22 1 -265.141 -234.277 -265.793 0.770378 0.481176 0.192897 0.371184 
23 1 -3.29334 -261.326 -244.255 0.37659 0.510406 0.764041 0.117924 
24 1 254.648 -251.548 -262.227 0.328403 0.422978 -0.117431 0.836332 
21 1 494.499 -229.636 -239.735 0.498546 0.46483 0.311075 0.662282 
26 1 -264.559 -1.22727 -255.984 0.870837 0.434395 0.22858 0.0263632 
28 1 254.232 -13.0981 -238.726 0.253078 0.459503 0.611226 0.592631 
27 1 7.69016 2.46074 -256.887 0.616617 0.644657 0.0776697 0.445161 
25 1 498.123 4.28875 -244.899 0.175384 0.5691 0.157719 0.787712 
30 1 -257.384 261.575 -245.664 0.653993 0.735183 0.0957755 0.150421 
31 1 5.93884 235.072 -262.299 0.114964 0.299914 0.293041 0.900534 
32 1 249.917 250.1 -243.406 0.177308 0.765532 0.513334 0.34498 
29 1 496.178 246.312 -244.496 0.744295 0.660966 0.059298 0.0750464 
18 1 -250.151 495.293 -236.747 0.302701 0.526602 0.430723 0.667487 
20 1 241.003 498.465 -262.727 0.109304 0.527811 0.755338 0.372738 
17 1 490.326 489.409 -247.348 0.559579 0.422558 0.519707 0.488078 
34 1 -243.006 500.051 -10.3515 0.0370084 0.130466 0.801609 0.582265 
35 1 -2.56361 -494.023 0.20896 0.532793 -0.0488173 0.60173 0.593017 
33 1 496.05 -487.503 2.52811 0.0615766 0.894767 -0.0231465 0.441662 
2 1 -241.722 -487.368 488.653 0.82238 0.219453 0.0695152 0.520288 
3 1 2.83256 -491.94 486.37 0.506028 0.396354 0.762796 -0.0705835 
5 1 -498.116 -240.271 485.572 0.823118 0.501158 0.170536 0.205512 
6 1 -254.95 -263.964 494.712 0.533929 0.77732 0.307506 0.127018 
7 1 7.20332 -238.393 499.479 0.176387 0.107975 0.94878 0.238843 
10 1 -245.937 20.0956 499.687 0.683871 0.435748 0.566105 0.14822 
11 1 6.23823 0.451532 485.457 0.675529 0.346576 0.632946 0.151407 
9 1 499.285 5.89872 -499.307 0.79151 0.324537 0.247801 0.454734 
16 1 246.603 245.598 484.347 0.663301 0.388357 0.243139 0.591688 
ITEM: TIMESTEP
70000
ITEM: NUMBER OF ATOMS
35
ITEM: BOX BOUNDS pp pp pp
-5.0000000000000000e+02 5.0000000000000000e+02
-5.0000000000000000e+02 5.0000000000000000e+02
-5.0000000000000000e+02 5.0000000000000000e+02
ITEM: ATOMS id type x y z c_q[1] c_q[2] c_q[3] c_q[4] 
8 1 227.333 -262.548 -492.324 0.626461 0.441713 0.352334 0.536933 
9 1 -497.663 5.68877 -496.733 0.781958 0.385393 0.241604 0.426195 
12 1 247.031 2.77592 -484.98 0.275675 0.263011 0.523851 0.761845 
13 1 -493.964 249.613 -479.928 0.172438 0.575344 0.754744 0.263827 
14 1 -256.819 257.076 -489.34 0.319179 0.606931 0.457098 0.56641 
19 1 20.9762 -494.497 -262.264 0.374067 0.77409 0.118884 0.496714 
22 1 -270.082 -238.054 -263.288 0.789542 0.496786 0.174141 0.31544 
23 1 -6.28053 -256.792 -242.637 0.410255 0.497964 0.757029 0.103103 
24 1 255.762 -252.745 -260.373 0.357525 0.40654 -0.133503 0.830107 
21 1 492.95 -229.004 -238.99 0.485691 0.457609 0.367856 0.647596 
26 1 -262.189 -3.80868 -254.462 0.85933 0.436809 0.263715 -0.0346996 
28 1 250.935 -11.3379 -238.562 0.212064 0.495827 0.616127 0.574084 
25 1 -499.483 4.81148 -239.275 0.195214 0.60243 0.131054 0.762754 
27 1 3.57054 4.52557 -255.722 0.61248 0.669807 0.0517945 0.416587 
30 1 -256.924 264.071 -245.724 0.647912 0.732525 0.0855324 0.190528 
31 1 2.27637 233.303 -256.666 0.0920378 0.278148 0.25974 0.920162 
32 1 246.653 252.298 -249.369 0.181619 0.777742 0.481453 0.361019 
29 1 498.176 243.553 -246.36 0.74737 0.658927 0.050207 0.0687871 
18 1 -249.335 495.684 -227.784 0.351267 0.520981 0.409849 0.661222 
20 1 239.904 498.746 -255.941 0.179511 0.531394 0.715772 0.416014 
17 1 490.906 490.412 -242.179 0.576113 0.42527 0.495446 0.491704 
35 1 -5.46372 -495.317 -3.95708 0.5443 -0.0614115 0.612898 0.569493 
34 1 -244.982 496.983 -10.2173 0.0603883 0.120513 0.807362 0.574453 
33 1 495.961 -490.303 0.293471 0.0502106 0.900243 0.00620625 0.432439 
2 1 -242.139 -490.181 487.036 0.836139 0.201978 0.12016 0.49562 
3 1 4.60364 -487.021 491.655 0.518162 0.44319 0.723721 -0.106388 
4 1 256.267 -493.762 499.924 0.168684 0.731818 0.0379419 0.659203 
5 1 -494.666 -242.432 485.291 0.833969 0.477383 0.204023 0.18702 
6 1 -251.111 -267.806 491.085 0.546864 0.771359 0.290988 0.145845 
7 1 7.29068 -237.833 495.727 0.133533 0.0903116 0.953994 0.252803 
10 1 -246.204 25.1182 493.118 0.6531 0.461804 0.586636 0.12671 
11 1 6.05908 3.29239 483.551 0.649149 0.347493 0.657814 0.158539 
15 1 -8.24685 241.629 497.841 0.403787 0.43781 0.785462 0.168306 
16 1 252.574 245.898 489.694 0.66701 0.416084 0.252374 0.564162 
1 1 498.679 491.497 -499.642 0.664174 0.441645 0.569911 0.197546 
ITEM: TIMESTEP
80000
ITEM: NUMBER OF ATOMS
35
ITEM: BOX BOUNDS pp pp pp
-5.0000000000000000e+02 5.0000000000000000e+02
-5.0000000000000000e+02 5.0000000000000000e+02
-5.0000000000000000e+02 5.0000000000000000e+02
ITEM: ATOMS id type x y z c_q[1] c_q[2] c_q[3] c_q[4] 
8 1 230.918 -258.684 -494.496 0.643183 0.487599 0.324644 0.493122 
9 1 -496.833 4.57609 -497.102 0.782907 0.354363 0.243146 0.449848 
12 1 249.569 3.77987 -482.769 0.314114 0.255229 0.540842 0.737347 
13 1 -493.15 247.566 -475.882 0.199234 0.548426 0.761709 0.281662 
14 1 -259.437 253.392 -485.48 0.2886 0.590232 0.45725 0.599382 
15 1 -4.3081 237.478 -499.816 0.406179 0.46149 0.771648 0.163113 
19 1 20.7497 -492.829 -262.799 0.395737 0.776216 0.111914 0.477865 
22 1 -272.355 -232.45 -263.272 0.805406 0.451985 0.231841 0.305419 
23 1 -8.07404 -258.183 -241.943 0.392128 0.546528 0.729025 0.126751 
24 1 255.099 -255.772 -261.667 0.340465 0.36668 -0.169785 0.849001 
21 1 489.188 -228.959 -234.142 0.506037 0.465405 0.343105 0.640003 
26 1 -263.317 -6.92245 -252.599 0.862705 0.419064 0.277541 -0.0556421 
28 1 249.801 -12.7831 -235.939 0.224176 0.478089 0.635594 0.563202 
25 1 -498.721 7.35452 -234.442 0.235388 0.591402 0.143844 0.757724 
27 1 2.79772 2.69201 -259.116 0.656107 0.642331 0.038575 0.394267 
29 1 -500.654 245.97 -249.604 0.733577 0.67137 -0.00933518 0.105071 
30 1 -252.21 269.321 -249.547 0.67347 0.713473 0.115175 0.155336 
31 1 8.05828 235.41 -253.725 0.0974007 0.274109 0.277855 0.915518 
32 1 245.122 253.879 -249.148 0.204791 0.759584 0.488285 0.377718 
18 1 -254.445 492.978 -224.053 0.350878 0.553432 0.39585 0.643351 
20 1 236.272 498.661 -256.608 0.24331 0.580034 0.669692 0.394807 
17 1 488.339 490.227 -238.118 0.573709 0.412321 0.48235 0.517868 
35 1 -3.26152 -492.613 -8.95943 0.569354 -0.0664076 0.633203 0.520077 
33 1 499.074 -488.54 -2.82996 0.0529486 0.903522 0.0340658 0.423891 
34 1 -248.919 496.521 -9.29269 0.0393593 0.136792 0.801902 0.580251 
2 1 -243.95 -483.875 485.313 0.851921 0.158126 0.0989833 0.489315 
3 1 3.17904 -487.682 485.157 0.507142 0.473442 0.710701 -0.116462 
4 1 257.735 -494.057 -499.557 0.178141 0.732689 -0.00191095 0.656832 
5 1 -493.149 -245.188 487.282 0.841117 0.469962 0.182419 0.195911 
6 1 -250.321 -269.962 491.171 0.56311 0.751084 0.294072 0.179726 
7 1 6.90363 -242.225 496.315 0.134825 0.14347 0.948453 0.248346 
11 1 5.28874 -1.59613 484.78 0.678697 0.353911 0.615312 0.188437 
10 1 -243.882 24.7253 492.997 0.666484 0.45556 0.568306 0.159034 
16 1 252.143 246.965 493.518 0.670599 0.438574 0.263424 0.537176 
1 1 496.674 491.263 492.041 0.6497 0.443401 0.578672 0.215461 
ITEM: TIMESTEP
90000
ITEM: NUMBER OF ATOMS
35
ITEM: BOX BOUNDS pp pp pp
-5.0000000000000000e+02 5.0000000000000000e+02
-5.0000000000000000e+02 5.0000000000000000e+02
-5.0000000000000000e+02 5.0000000000000000e+02
ITEM: ATOMS id type x y z c_q[1] c_q[2] c_q[3] c_q[4] 
8 1 231.811 -257.997 -495.891 0.640859 0.491616 0.340743 0.481152 
9 1 -493.209 1.77748 -495.228 0.756513 0.397819 0.253792 0.452789 
12 1 252.239 -0.630789 -486.384 0.307658 0.326288 0.512327 0.732396 
13 1 -495.635 246.76 -475.659 0.185418 0.560299 0.760647 0.270374 
14 1 -252.389 250.987 -481.577 0.31747 0.599135 0.447896 0.582786 
15 1 -5.69273 238.635 -499.235 0.391305 0.449621 0.795009 0.112614 
19 1 18.9676 -490.525 -263.194 0.368298 0.766365 0.122274 0.511948 
20 1 238.031 -492.827 -256.667 0.200585 0.602989 0.652033 0.413549 
22 1 -271.685 -224.959 -260.091 0.812516 0.409626 0.242342 0.336593 
23 1 -4.672 -257.593 -248.233 0.375389 0.569893 0.715264 0.150672 
24 1 255.186 -253.578 -263.003 0.340827 0.420167 -0.192689 0.818638 
21 1 490.647 -227.226 -233.667 0.466069 0.449338 0.345806 0.679186 
26 1 -262.591 -1.9393 -252.978 0.839804 0.414015 0.351037 0.00972288 
28 1 250.75 -13.8333 -230.244 0.218391 0.512071 0.665748 0.496857 
25 1 -497.105 10.8599 -238.452 0.238553 0.605333 0.095561 0.753348 
27 1 -1.49137 4.07948 -261.599 0.63214 0.663914 0.00253618 0.399513 
29 1 -499.429 244.411 -250.819 0.751861 0.65291 -0.0054265 0.0915656 
30 1 -254.389 267.938 -252.871 0.689993 0.694426 0.126018 0.160629 
31 1 6.03934 238.83 -252.826 0.0604496 0.299357 0.284642 0.908686 
32 1 246.676 254.227 -249 0.201026 0.74721 0.522843 0.357631 
18 1 -252.614 489.416 -220.044 0.314113 0.573974 0.392675 0.646292 
17 1 485.972 494.514 -238.792 0.568657 0.398612 0.484517 0.531959 
35 1 -7.48928 -498.161 -8.13945 0.542139 -0.0805733 0.64543 0.53199 
33 1 -500.026 -488.813 -2.05848 0.0203372 0.87344 0.0282103 0.485688 
34 1 -245.3 493.282 -11.6732 0.0284819 0.145554 0.777988 0.610523 
2 1 -240.843 -479.935 487.599 0.8248 0.189244 0.087957 0.525504 
3 1 -3.40079 -492.915 486.002 0.509596 0.487999 0.706285 -0.0577053 
4 1 254.409 -492.139 493.569 0.171483 0.714243 0.00408524 0.678553 
5 1 -492.225 -241.539 488.493 0.856045 0.430149 0.192245 0.212604 
6 1 -249.626 -270.155 492.507 0.619076 0.747276 0.232257 0.0661831 
7 1 10.5819 -244.667 499.691 0.0930766 0.110835 0.962877 0.22786 
11 1 8.95042 -0.500912 483.42 0.684318 0.365497 0.59736 0.203178 
10 1 -241.663 22.3132 492.568 0.630422 0.449028 0.602731 0.194056 
16 1 253.963 247.844 491.723 0.690845 0.428887 0.267654 0.516867 
1 1 496.639 487.634 491.788 0.653513 0.460113 0.549756 0.242869 
ITEM: TIMESTEP
100000
ITEM: NUMBER OF ATOMS
35
ITEM: BOX BOUNDS pp pp pp
-5.0000000000000000e+02 5.0000000000000000e+02
-5.0000000000000000e+02 5.0000000000000000e+02
-5.0000000000000000e+02 5.0000000000000000e+02
ITEM: ATOMS id type x y z c_q[1] c_q[2] c_q[3] c_q[4] 
4 1 256.339 -495.194 -499.348 0.124987 0.720579 0.0338578 0.681174 
8 1 233.094 -257.581 -489.544 0.656247 0.473877 0.374745 0.452046 
9 1 -498.172 -0.614351 -492.009 0.782116 0.369224 0.20063 0.460126 
12 1 244.518 -5.57231 -482.237 0.294303 0.272808 0.511048 0.760126 
13 1 -496.789 242.252 -474.211 0.215918 0.561244 0.747466 0.282275 
14 1 -253.172 254.862 -483.054 0.264577 0.613679 0.466856 0.579174 
15 1 -3.57041 240.375 -499.045 0.34564 0.487429 0.789144 0.142115 
19 1 16.8671 -491.317 -261.888 0.320295 0.747787 0.140551 0.564332 
20 1 235.018 -489.385 -255.786 0.213644 0.610078 0.638375 0.417897 
22 1 -271.662 -229.446 -264.467 0.828677 0.386077 0.21639 0.342657 
23 1 -5.38363 -257.858 -251.159 0.371855 0.572699 0.715817 0.146098 
24 1 256.998 -251.002 -264.553 0.329427 0.437236 -0.208477 0.810457 
21 1 488.709 -228.398 -232.742 0.48505 0.43628 0.377468 0.657194 
28 1 247.498 -12.5606 -227.444 0.203081 0.511147 0.664915 0.505347 
26 1 -263.713 8.79248 -251.759 0.853815 0.382462 0.349496 0.0507412 
27 1 -4.14945 7.21814 -261.702 0.615147 0.672796 0.000724092 0.411021 
25 1 499.095 7.17235 -241.781 0.236162 0.602614 0.0730087 0.758784 
30 1 -253.809 266.573 -251.596 0.689725 0.703595 0.0779664 0.152167 
31 1 7.74813 238.017 -251.437 0.0189853 0.331641 0.277041 0.901611 
32 1 246.503 254.54 -252.591 0.211446 0.761833 0.525713 0.313889 
29 1 497.074 242.468 -248.944 0.721289 0.686235 0.00840517 0.0935535 
18 1 -249.522 491.038 -218.037 0.294744 0.565843 0.392825 0.662296 
17 1 488.181 490.603 -237.222 0.56653 0.381909 0.475598 0.554072 
33 1 -498.804 -489.481 -1.44277 0.028498 0.861855 0.0240496 0.505781 
35 1 -8.46201 -494.194 -10.8297 0.542511 -0.0751515 0.632957 0.547174 
34 1 -242.4 491.401 -13.0031 0.0166861 0.120585 0.795342 0.593811 
2 1 -241.538 -484.625 489.871 0.806789 0.221597 0.0886412 0.54049 
3 1 -0.713018 -492.643 485.623 0.520853 0.549421 0.650419 -0.0616803 
5 1 -485.921 -241.672 486.096 0.84406 0.462382 0.204646 0.178562 
6 1 -246.295 -271.858 488.39 0.620877 0.735383 0.255909 0.0907448 
7 1 8.69162 -244.555 491.771 0.0548493 0.0725615 0.964479 0.248007 
11 1 5.74638 -4.10762 482.285 0.711352 0.340684 0.589867 0.173117 
10 1 -234.94 22.975 490.909 0.639807 0.429321 0.606202 0.197104 
16 1 255.481 246.458 497.177 0.690147 0.429755 0.251394 0.525175 
1 1 495.699 485.75 486.98 0.622624 0.474318 0.579388 0.227315 
ITEM: TIMESTEP
110000
ITEM: NUMBER OF ATOMS
35
ITEM: BOX BOUNDS pp pp pp
-5.0000000000000000e+02 5.0000000000000000e+02
-5.0000000000000000e+02 5.0000000000000000e+02
-5.0000000000000000e+02 5.0000000000000000e+02
ITEM: ATOMS id type x y z c_q[1] c_q[2] c_q[3] c_q[4] 
4 1 258.814 -494.284 -495.091 0.103901 0.723288 0.0120397 0.682579 
8 1 231.753 -255.136 -486.165 0.650315 0.503999 0.381863 0.421017 
12 1 246.945 -7.818 -485.369 0.333129 0.28737 0.501989 0.744615 
9 1 496.247 1.61744 -491.866 0.795613 0.377797 0.182529 0.436981 
14 1 -252.215 257.881 -477.236 0.274582 0.572499 0.492745 0.595023 
16 1 257.881 238.497 -499.685 0.727763 0.439833 0.212109 0.481578 
13 1 498.383 250.26 -473.325 0.225492 0.554003 0.74501 0.295287 
19 1 17.9611 -487.82 -256.618 0.259949 0.784944 0.155912 0.540353 
20 1 235.172 -491.94 -253.716 0.191028 0.647958 0.615789 0.405541 
22 1 -270.902 -228.066 -263.708 0.809533 0.384821 0.289989 0.335374 
23 1 -1.89164 -257.813 -251.371 0.413178 0.569244 0.694164 0.15291 
24 1 258.557 -243.646 -266.097 0.363767 0.430824 -0.192761 0.803061 
21 1 491.233 -235.551 -233.644 0.496464 0.415792 0.368926 0.666734 
28 1 243.612 -12.2077 -232.336 0.222407 0.524208 0.659082 0.491276 
26 1 -264.631 9.22651 -252.208 0.845886 0.36944 0.378014 0.0713941 
27 1 -5.26465 5.99341 -258.829 0.616922 0.68525 0.0403215 0.384986 
25 1 499.615 12.1165 -239.746 0.231927 0.61724 0.0879583 0.746651 
30 1 -254.994 263.123 -249.6 0.670448 0.714014 0.0818972 0.184328 
31 1 9.93711 237.803 -250.213 0.0263006 0.365619 0.245421 0.897441 
32 1 242.949 255.314 -256.376 0.214999 0.742404 0.535808 0.339884 