LAMMPS data file

55 atoms
55 ellipsoids
0 bonds
0 angles
0 dihedrals

1 atom types
0 bond types
0 angle types
0 dihedral types

-500.000000 500.000000 xlo xhi
-500.000000 500.000000 ylo yhi
-500.000000 500.000000 zlo zhi

Masses

1 203166.000000

Atoms

1 1 -500.000000 -500.000000 -500.000000 1 1.000000 3 0.000000
2 1 -250.000000 -500.000000 -500.000000 1 1.000000 4 0.000000
3 1 0.000000 -500.000000 -500.000000 1 1.000000 5 0.000000
4 1 250.000000 -500.000000 -500.000000 1 1.000000 6 0.000000
5 1 -500.000000 -250.000000 -500.000000 1 1.000000 7 0.000000
6 1 -250.000000 -250.000000 -500.000000 1 1.000000 8 0.000000
7 1 0.000000 -250.000000 -500.000000 1 1.000000 9 0.000000
8 1 250.000000 -250.000000 -500.000000 1 1.000000 10 0.000000
9 1 -500.000000 0.000000 -500.000000 1 1.000000 11 0.000000
10 1 -250.000000 0.000000 -500.000000 1 1.000000 12 0.000000
11 1 0.000000 0.000000 -500.000000 1 1.000000 13 0.000000
12 1 250.000000 0.000000 -500.000000 1 1.000000 14 0.000000
13 1 -500.000000 250.000000 -500.000000 1 1.000000 15 0.000000
14 1 -250.000000 250.000000 -500.000000 1 1.000000 16 0.000000
15 1 0.000000 250.000000 -500.000000 1 1.000000 17 0.000000
16 1 250.000000 250.000000 -500.000000 1 1.000000 18 0.000000
17 1 -500.000000 -500.000000 -250.000000 1 1.000000 19 0.000000
18 1 -250.000000 -500.000000 -250.000000 1 1.000000 20 0.000000
19 1 0.000000 -500.000000 -250.000000 1 1.000000 21 0.000000
20 1 250.000000 -500.000000 -250.000000 1 1.000000 22 0.000000
21 1 -500.000000 -250.000000 -250.000000 1 1.000000 23 0.000000
22 1 -250.000000 -250.000000 -250.000000 1 1.000000 24 0.000000
23 1 0.000000 -250.000000 -250.000000 1 1.000000 25 0.000000
24 1 250.000000 -250.000000 -250.000000 1 1.000000 26 0.000000
25 1 -500.000000 0.000000 -250.000000 1 1.000000 27 0.000000
26 1 -250.000000 0.000000 -250.000000 1 1.000000 28 0.000000
27 1 0.000000 0.000000 -250.000000 1 1.000000 29 0.000000
28 1 250.000000 0.000000 -250.000000 1 1.000000 30 0.000000
29 1 -500.000000 250.000000 -250.000000 1 1.000000 31 0.000000
30 1 -250.000000 250.000000 -250.000000 1 1.000000 32 0.000000
31 1 0.000000 250.000000 -250.000000 1 1.000000 33 0.000000
32 1 250.000000 250.000000 -250.000000 1 1.000000 34 0.000000
33 1 -500.000000 -500.000000 0.000000 1 1.000000 35 0.000000
34 1 -250.000000 -500.000000 0.000000 1 1.000000 36 0.000000
35 1 0.000000 -500.000000 0.000000 1 1.000000 37 0.000000
36 1 250.000000 -500.000000 0.000000 1 1.000000 38 0.000000
37 1 -500.000000 -250.000000 0.000000 1 1.000000 39 0.000000
38 1 -250.000000 -250.000000 0.000000 1 1.000000 40 0.000000
39 1 0.000000 -250.000000 0.000000 1 1.000000 41 0.000000
40 1 250.000000 -250.000000 0.000000 1 1.000000 42 0.000000
41 1 -500.000000 0.000000 0.000000 1 1.000000 43 0.000000
42 1 -250.000000 0.000000 0.000000 1 1.000000 44 0.000000
43 1 0.000000 0.000000 0.000000 1 1.000000 45 0.000000
44 1 250.000000 0.000000 0.000000 1 1.000000 46 0.000000
45 1 -500.000000 250.000000 0.000000 1 1.000000 47 0.000000
46 1 -250.000000 250.000000 0.000000 1 1.000000 48 0.000000
47 1 0.000000 250.000000 0.000000 1 1.000000 49 0.000000
48 1 250.000000 250.000000 0.000000 1 1.000000 50 0.000000
49 1 -500.000000 -500.000000 250.000000 1 1.000000 51 0.000000
50 1 -250.000000 -500.000000 250.000000 1 1.000000 52 0.000000
51 1 0.000000 -500.000000 250.000000 1 1.000000 53 0.000000
52 1 250.000000 -500.000000 250.000000 1 1.000000 54 0.000000
53 1 -500.000000 -250.000000 250.000000 1 1.000000 55 0.000000
54 1 -250.000000 -250.000000 250.000000 1 1.000000 56 0.000000
55 1 0.000000 -250.000000 250.000000 1 1.000000 57 0.000000

Ellipsoids

1 55.000000 110.000000 110.000000 0.523478 0.714983 0.315561 0.339398
2 55.000000 110.000000 110.000000 0.376410 0.552077 0.576406 0.470406
3 55.000000 110.000000 110.000000 0.046765 0.748995 0.643923 0.148938
4 55.000000 110.000000 110.000000 0.199450 0.723888 0.534117 0.388491
5 55.000000 110.000000 110.000000 0.156323 0.504701 0.587857 0.612588
6 55.000000 110.000000 110.000000 0.400823 0.537535 0.629949 0.391869
7 55.000000 110.000000 110.000000 0.333018 0.478098 0.489158 0.649035
8 55.000000 110.000000 110.000000 0.365174 0.691845 0.522393 0.339270
9 55.000000 110.000000 110.000000 0.430486 0.323563 0.839596 0.071182
10 55.000000 110.000000 110.000000 0.016253 0.709323 0.602556 0.365407
11 55.000000 110.000000 110.000000 0.541020 0.579271 0.469067 0.389512
12 55.000000 110.000000 110.000000 0.688964 0.672585 0.132407 0.235428
13 55.000000 110.000000 110.000000 0.052427 0.413286 0.904868 0.087523
14 55.000000 110.000000 110.000000 0.452613 0.586062 0.617934 0.264255
15 55.000000 110.000000 110.000000 0.578024 0.458234 0.595960 0.317397
16 55.000000 110.000000 110.000000 0.394972 0.510157 0.107132 0.756478
17 55.000000 110.000000 110.000000 0.448336 0.750459 0.035447 0.484303
18 55.000000 110.000000 110.000000 0.348056 0.723695 0.409940 0.432518
19 55.000000 110.000000 110.000000 0.178268 0.836559 0.299771 0.422524
20 55.000000 110.000000 110.000000 0.174324 0.432018 0.822448 0.326421
21 55.000000 110.000000 110.000000 0.323771 0.755238 0.253881 0.510227
22 55.000000 110.000000 110.000000 0.704473 0.482240 0.392079 0.342691
23 55.000000 110.000000 110.000000 0.541477 0.417625 0.452342 0.572519
24 55.000000 110.000000 110.000000 0.571266 0.629228 0.360550 0.384358
25 55.000000 110.000000 110.000000 0.439253 0.176670 0.860945 0.186062
26 55.000000 110.000000 110.000000 0.620622 0.469052 0.563510 0.277983
27 55.000000 110.000000 110.000000 0.497242 0.510522 0.522545 0.468044
28 55.000000 110.000000 110.000000 0.070150 0.444751 0.652132 0.609918
29 55.000000 110.000000 110.000000 0.085365 0.090436 0.977856 0.168320
30 55.000000 110.000000 110.000000 0.952200 0.057185 0.128808 0.271023
31 55.000000 110.000000 110.000000 0.717665 0.315900 0.510980 0.352227
32 55.000000 110.000000 110.000000 0.925391 0.035805 0.370830 0.069672
33 55.000000 110.000000 110.000000 0.382069 0.898756 0.043219 0.210696
34 55.000000 110.000000 110.000000 0.018337 0.186812 0.630028 0.753545
35 55.000000 110.000000 110.000000 0.682492 0.648529 0.331274 0.062231
36 55.000000 110.000000 110.000000 0.009388 0.619434 0.539049 0.570648
37 55.000000 110.000000 110.000000 0.378469 0.428074 0.529954 0.626628
38 55.000000 110.000000 110.000000 0.573153 0.345413 0.470549 0.575125
39 55.000000 110.000000 110.000000 0.035217 0.592393 0.347999 0.725759
40 55.000000 110.000000 110.000000 0.534239 0.534766 0.558092 0.342269
41 55.000000 110.000000 110.000000 0.568120 0.788382 0.112376 0.207520
42 55.000000 110.000000 110.000000 0.910033 0.181890 0.329720 0.173323
43 55.000000 110.000000 110.000000 0.194069 0.124480 0.855732 0.463211
44 55.000000 110.000000 110.000000 0.391738 0.670534 0.392327 0.492955
45 55.000000 110.000000 110.000000 0.496284 0.748262 0.270960 0.346969
46 55.000000 110.000000 110.000000 0.796321 0.022867 0.309956 0.518919
47 55.000000 110.000000 110.000000 0.063679 0.723829 0.455122 0.514665
48 55.000000 110.000000 110.000000 0.525633 0.470604 0.704779 0.074358
49 55.000000 110.000000 110.000000 0.312878 0.655612 0.538550 0.426900
50 55.000000 110.000000 110.000000 0.763950 0.339091 0.537048 0.113915
51 55.000000 110.000000 110.000000 0.504339 0.777867 0.060125 0.370068
52 55.000000 110.000000 110.000000 0.401691 0.900310 0.161101 0.046184
53 55.000000 110.000000 110.000000 0.540803 0.099848 0.555329 0.623837
54 55.000000 110.000000 110.000000 0.410411 0.592407 0.497696 0.482613
55 55.000000 110.000000 110.000000 0.792329 0.487622 0.196014 0.309867




