ITEM: TIMESTEP
0
ITEM: NUMBER OF ATOMS
55
ITEM: BOX BOUNDS pp pp pp
-5.0000000000000000e+02 5.0000000000000000e+02
-5.0000000000000000e+02 5.0000000000000000e+02
-5.0000000000000000e+02 5.0000000000000000e+02
ITEM: ATOMS id type x y z c_q[1] c_q[2] c_q[3] c_q[4] 
1 1 -500 -500 -500 0.523478 0.714983 0.315561 0.339398 
2 1 -250 -500 -500 0.37641 0.552077 0.576406 0.470406 
3 1 0 -500 -500 0.046765 0.748995 0.643923 0.148938 
4 1 250 -500 -500 0.19945 0.723888 0.534117 0.388491 
5 1 -500 -250 -500 0.156323 0.504701 0.587857 0.612588 
6 1 -250 -250 -500 0.400823 0.537535 0.629949 0.391869 
7 1 0 -250 -500 0.333018 0.478098 0.489158 0.649035 
8 1 250 -250 -500 0.365174 0.691845 0.522393 0.33927 
9 1 -500 0 -500 0.430486 0.323563 0.839596 0.071182 
10 1 -250 0 -500 0.016253 0.709323 0.602556 0.365407 
11 1 0 0 -500 0.54102 0.579271 0.469067 0.389512 
12 1 250 0 -500 0.688964 0.672585 0.132407 0.235428 
13 1 -500 250 -500 0.052427 0.413286 0.904868 0.087523 
14 1 -250 250 -500 0.452613 0.586062 0.617934 0.264255 
15 1 0 250 -500 0.578024 0.458234 0.59596 0.317397 
16 1 250 250 -500 0.394972 0.510157 0.107132 0.756478 
17 1 -500 -500 -250 0.448336 0.750459 0.035447 0.484303 
18 1 -250 -500 -250 0.348056 0.723695 0.40994 0.432518 
19 1 0 -500 -250 0.178268 0.836559 0.299771 0.422524 
20 1 250 -500 -250 0.174324 0.432018 0.822448 0.326421 
21 1 -500 -250 -250 0.323771 0.755238 0.253881 0.510227 
22 1 -250 -250 -250 0.704473 0.48224 0.392079 0.342691 
23 1 0 -250 -250 0.541477 0.417625 0.452342 0.572519 
24 1 250 -250 -250 0.571266 0.629228 0.36055 0.384358 
25 1 -500 0 -250 0.439253 0.17667 0.860945 0.186062 
26 1 -250 0 -250 0.620622 0.469052 0.56351 0.277983 
27 1 0 0 -250 0.497242 0.510522 0.522545 0.468044 
28 1 250 0 -250 0.07015 0.444751 0.652132 0.609918 
29 1 -500 250 -250 0.085365 0.090436 0.977856 0.16832 
30 1 -250 250 -250 0.9522 0.057185 0.128808 0.271023 
31 1 0 250 -250 0.717665 0.3159 0.51098 0.352227 
32 1 250 250 -250 0.925391 0.035805 0.37083 0.069672 
33 1 -500 -500 0 0.382069 0.898756 0.043219 0.210696 
34 1 -250 -500 0 0.018337 0.186812 0.630028 0.753545 
35 1 0 -500 0 0.682492 0.648529 0.331274 0.062231 
36 1 250 -500 0 0.009388 0.619434 0.539049 0.570648 
37 1 -500 -250 0 0.378469 0.428074 0.529954 0.626628 
38 1 -250 -250 0 0.573153 0.345413 0.470549 0.575125 
39 1 0 -250 0 0.035217 0.592393 0.347999 0.725759 
40 1 250 -250 0 0.534239 0.534766 0.558092 0.342269 
41 1 -500 0 0 0.56812 0.788382 0.112376 0.20752 
42 1 -250 0 0 0.910033 0.18189 0.32972 0.173323 
43 1 0 0 0 0.194069 0.12448 0.855732 0.463211 
44 1 250 0 0 0.391738 0.670534 0.392327 0.492955 
45 1 -500 250 0 0.496284 0.748262 0.27096 0.346969 
46 1 -250 250 0 0.796321 0.022867 0.309956 0.518919 
47 1 0 250 0 0.063679 0.723829 0.455122 0.514665 
48 1 250 250 0 0.525633 0.470604 0.704779 0.074358 
49 1 -500 -500 250 0.312878 0.655612 0.53855 0.4269 
50 1 -250 -500 250 0.76395 0.339091 0.537048 0.113915 
51 1 0 -500 250 0.504339 0.777867 0.060125 0.370068 
52 1 250 -500 250 0.401691 0.90031 0.161101 0.046184 
53 1 -500 -250 250 0.540803 0.099848 0.555329 0.623837 
54 1 -250 -250 250 0.410411 0.592407 0.497696 0.482613 
55 1 0 -250 250 0.792329 0.487622 0.196014 0.309867 
ITEM: TIMESTEP
10000
ITEM: NUMBER OF ATOMS
55
ITEM: BOX BOUNDS pp pp pp
-5.0000000000000000e+02 5.0000000000000000e+02
-5.0000000000000000e+02 5.0000000000000000e+02
-5.0000000000000000e+02 5.0000000000000000e+02
ITEM: ATOMS id type x y z c_q[1] c_q[2] c_q[3] c_q[4] 
3 1 -0.067223 -498.527 498.885 0.0825104 0.811244 0.563161 0.133886 
6 1 -246.792 -248.854 -494.482 0.342747 0.576967 0.634876 0.38284 
7 1 -0.732189 -243.346 -499.917 0.369317 0.480101 0.496931 0.621424 
12 1 247.939 -5.15742 -496.91 0.710266 0.66497 0.120906 0.196772 
10 1 -250.8 3.70417 -495.323 0.00449053 0.705939 0.616474 0.348699 
9 1 492.967 1.14482 -497.122 0.434689 0.312372 0.84063 0.0825229 
15 1 2.47417 251.712 -496.975 0.582719 0.460991 0.583865 0.32715 
2 1 -249.555 496.005 -497.039 0.360421 0.564012 0.590109 0.451396 
1 1 496.674 498.765 -498.337 0.522605 0.672477 0.33693 0.401418 
18 1 -251.246 -493.108 -248.802 0.324549 0.697709 0.40587 0.493092 
19 1 4.31808 -497.403 -251.725 0.181279 0.851173 0.311927 0.38124 
17 1 498.53 -496.974 -243.627 0.416789 0.769179 0.0612516 0.480519 
22 1 -245.346 -243.981 -243.963 0.723278 0.463586 0.390579 0.330763 
23 1 1.79227 -247.57 -248.926 0.539012 0.444344 0.459751 0.548319 
24 1 249.54 -253.749 -257.369 0.566578 0.607757 0.366514 0.418675 
21 1 499.414 -249.975 -252.4 0.237226 0.783972 0.235835 0.522966 
27 1 2.02163 -2.40626 -254.683 0.538687 0.454137 0.509881 0.493556 
28 1 249.729 -1.07759 -247.462 0.161369 0.40042 0.631798 0.643782 
25 1 -499.905 3.6862 -252.919 0.356798 0.205691 0.893886 0.177072 
26 1 -250.731 1.41832 -249.99 0.614098 0.452224 0.579448 0.287432 
30 1 -248.488 254.424 -249.412 0.968957 0.0778056 0.0882991 0.217423 
31 1 -0.840052 254.99 -247.472 0.695877 0.318864 0.514161 0.386936 
32 1 253.589 248.499 -244.645 0.927842 0.0139901 0.363446 0.0825874 
29 1 498.853 256.446 -250.955 0.0430357 0.0711027 0.97982 0.181782 
20 1 248.136 495.366 -251.311 0.16326 0.412891 0.817535 0.366748 
38 1 -248.401 -250.27 -2.84707 0.559751 0.34395 0.479836 0.581494 
40 1 249.395 -255.682 -1.4024 0.582675 0.554985 0.51904 0.288235 
46 1 -257.142 250.955 -1.23946 0.768695 0.0215793 0.32657 0.549541 
47 1 0.797263 251.265 -3.249 0.0468116 0.707207 0.477911 0.51891 
48 1 252.414 247.827 -1.65282 0.561376 0.508032 0.652101 0.0390521 
45 1 498.843 253.898 -4.37733 0.500069 0.765385 0.27024 0.301807 
33 1 495.805 499.828 -8.72953 0.340267 0.903798 0.0689773 0.250219 
36 1 247.362 -497.1 6.07124 0.0179534 0.603756 0.566894 0.560168 
37 1 -496.906 -242.322 3.99697 0.367932 0.43101 0.517835 0.640861 
39 1 -8.63539 -250.174 3.19894 -0.0262642 0.614668 0.331916 0.71507 
41 1 -498.278 -4.28845 2.55322 0.575409 0.797781 0.072268 0.165007 
42 1 -247.33 -2.11569 1.99814 0.90057 0.19421 0.345383 0.178792 
43 1 -2.73163 1.92611 4.70337 0.161192 0.119938 0.858951 0.470993 
44 1 249.34 2.84376 4.55653 0.436669 0.647134 0.373161 0.501287 
34 1 -251.943 496.807 1.41128 0.0178224 0.206193 0.661401 0.720913 
35 1 2.51642 496.49 3.98227 0.712148 0.628311 0.310833 0.038127 
51 1 4.2008 -495.817 248.451 0.485667 0.778061 0.0574525 0.394268 
52 1 252.674 -496.068 245.58 0.354284 0.915621 0.174168 0.0760639 
54 1 -254.919 -251.811 248.509 0.409784 0.616832 0.456161 0.493471 
55 1 1.79174 -250.752 252.783 0.779245 0.499937 0.198786 0.32144 
53 1 -499.635 -247.832 250.319 0.537786 0.0963121 0.5487 0.632802 
50 1 -249.502 498.502 245.811 0.75251 0.368955 0.526104 0.144279 
49 1 496.942 496.483 245.078 0.28833 0.656708 0.540493 0.439851 
5 1 -497.231 -253.961 496.54 0.179391 0.578202 0.515586 0.606359 
8 1 251.09 -253.635 495.097 0.358016 0.698873 0.511567 0.348855 
11 1 -2.93677 -4.20883 499.002 0.533567 0.570462 0.460431 0.421761 
13 1 -496.987 248.135 496.083 0.106309 0.38768 0.910595 0.0960152 
14 1 -250.323 253.795 498.2 0.449021 0.562057 0.625196 0.302658 
16 1 252.695 250.524 499.121 0.383475 0.489867 0.102595 0.776177 
4 1 250.461 496.067 498.969 0.202756 0.745756 0.469077 0.42744 
ITEM: TIMESTEP
20000
ITEM: NUMBER OF ATOMS
55
ITEM: BOX BOUNDS pp pp pp
-5.0000000000000000e+02 5.0000000000000000e+02
-5.0000000000000000e+02 5.0000000000000000e+02
-5.0000000000000000e+02 5.0000000000000000e+02
ITEM: ATOMS id type x y z c_q[1] c_q[2] c_q[3] c_q[4] 
1 1 495.602 -497.711 -497.262 0.489102 0.71377 0.354927 0.354033 
6 1 -248.123 -251.584 -495.616 0.309781 0.576502 0.63673 0.407745 
11 1 -6.43154 -3.96037 -498.121 0.517283 0.546042 0.448123 0.483158 
12 1 249.711 -7.59889 -496.181 0.754752 0.610023 0.098554 0.220247 
9 1 495.787 0.0765099 -500.017 0.493289 0.304572 0.809848 0.0897116 
10 1 -253.182 5.31954 -497.944 -0.00432676 0.747971 0.565298 0.347791 
15 1 -0.0850266 253.181 -494.508 0.588382 0.490501 0.533531 0.358552 
2 1 -253.745 495.587 -497.662 0.363728 0.573827 0.562367 0.471348 
4 1 255.838 493.565 -499.156 0.225435 0.787046 0.416539 0.395263 
17 1 499.528 -499.526 -243.825 0.404677 0.777204 0.0877309 0.473808 
18 1 -251.626 -493.269 -247.222 0.308777 0.678483 0.463576 0.478973 
19 1 4.64864 -499.943 -250.163 0.173401 0.861786 0.320094 0.353267 
22 1 -246.68 -245.961 -242.65 0.727199 0.445586 0.412602 0.319991 
23 1 4.34825 -250.223 -251.026 0.506095 0.460918 0.452224 0.571766 
24 1 251.759 -255.139 -254.002 0.502912 0.648385 0.347402 0.453859 
21 1 496.537 -253.01 -257.536 0.255819 0.789699 0.210861 0.516206 
26 1 -248.525 -1.50957 -250.119 0.585928 0.471143 0.591141 0.292003 
25 1 498.402 -3.75272 -257.06 0.331483 0.210352 0.901036 0.184403 
27 1 3.31898 -0.853189 -263.175 0.50745 0.475431 0.486573 0.528873 
28 1 243.797 1.44414 -248.998 0.203501 0.383985 0.61767 0.65546 
30 1 -246.279 261.557 -248.064 0.967055 0.0804032 0.110026 0.215023 
31 1 -0.112078 256.601 -241.724 0.704395 0.288502 0.518803 0.38915 
32 1 251.561 251.859 -241.284 0.928735 -0.00419741 0.361285 0.0831029 
29 1 496.672 254.451 -252.637 0.0477887 0.0418647 0.984303 0.164652 
20 1 243.755 492.134 -250.555 0.187901 0.409967 0.808027 0.379095 
38 1 -251.541 -253.562 -3.33242 0.612014 0.304722 0.419647 0.59706 
46 1 -255.56 249.179 -3.97629 0.765438 0.0689712 0.338078 0.543185 
47 1 2.43458 251.805 -0.857535 0.0512357 0.710827 0.448765 0.539175 
48 1 246.926 250.341 -4.17495 0.574921 0.491487 0.653133 0.0363809 
45 1 496.565 249.583 -5.01744 0.496833 0.754706 0.312091 0.293557 
34 1 -252.979 498.994 -3.18948 0.0184067 0.274699 0.614242 0.739532 
33 1 499.817 494.861 -6.63569 0.347312 0.906592 0.0898774 0.222234 
36 1 252.26 -500.071 5.84479 -0.0142483 0.590514 0.585972 0.554731 
37 1 -493.026 -239.977 1.44084 0.356351 0.424481 0.528815 0.642794 
39 1 -8.34378 -250.208 9.34434 0.0238843 0.616622 0.349512 0.705017 
40 1 245.936 -255.183 1.66442 0.559449 0.555164 0.553732 0.268683 
41 1 499.036 -4.25836 10.9246 0.541525 0.818523 0.0398094 0.18758 
42 1 -245.892 0.62858 5.47681 0.880374 0.183514 0.399849 0.177156 
43 1 -2.87494 3.00965 9.45712 0.167753 0.100403 0.872026 0.448719 
44 1 252.012 4.55583 6.85601 0.383342 0.642446 0.416796 0.516328 
35 1 4.92429 494.824 0.567505 0.735595 0.632017 0.237109 0.0568666 
52 1 252.655 -495.197 245.784 0.366847 0.912452 0.164036 0.0771146 
54 1 -252.963 -253.502 248.218 0.459715 0.594888 0.421636 0.506945 
55 1 2.33238 -255.433 254.392 0.785185 0.470818 0.221233 0.335963 
53 1 499.458 -251.777 250.177 0.557767 0.0860015 0.56918 0.597941 
50 1 -247.604 498.505 246.207 0.768931 0.332401 0.515025 0.181671 
51 1 8.55511 499.191 247.146 0.486806 0.776104 0.0331117 0.399482 
49 1 493.053 498.068 246.56 0.266884 0.633132 0.576093 0.442757 
3 1 1.87019 -493.023 496.175 0.111253 0.822653 0.550203 0.090232 
5 1 -491.561 -254.156 495.386 0.139504 0.5701 0.528456 0.6134 
7 1 -0.413889 -240.724 497.79 0.401115 0.451266 0.466284 0.646564 
8 1 250.938 -254.925 496.853 0.3471 0.748297 0.487016 0.287034 
14 1 -250.682 250.985 495.792 0.486207 0.531172 0.594375 0.358018 
16 1 256.913 245.893 498.907 0.434109 0.437835 0.0916763 0.78195 
13 1 499.394 251.909 498.739 0.0521239 0.398267 0.911204 0.0915108 
ITEM: TIMESTEP
30000
ITEM: NUMBER OF ATOMS
55
ITEM: BOX BOUNDS pp pp pp
-5.0000000000000000e+02 5.0000000000000000e+02
-5.0000000000000000e+02 5.0000000000000000e+02
-5.0000000000000000e+02 5.0000000000000000e+02
ITEM: ATOMS id type x y z c_q[1] c_q[2] c_q[3] c_q[4] 
2 1 -254.472 -498.621 -496.482 0.407761 0.576587 0.546834 0.449724 
6 1 -246.938 -247.43 -497.314 0.299988 0.577551 0.630433 0.423079 
12 1 253.118 -8.71275 -497.56 0.734109 0.618419 0.104147 0.260375 
9 1 494.317 0.314114 -498.604 0.4596 0.333231 0.818428 0.0888833 
13 1 493.887 251.069 -497.288 0.0501166 0.383845 0.91887 0.0763529 
1 1 494.561 498.176 -497.406 0.505131 0.723215 0.305992 0.358011 
18 1 -250.523 -498.242 -247 0.277623 0.702018 0.50946 0.412973 
21 1 -498.279 -250.542 -255.283 0.283253 0.783708 0.225479 0.504706 
22 1 -246.748 -246.665 -246.181 0.748123 0.447698 0.381058 0.307689 
23 1 1.57809 -252.495 -254.736 0.506267 0.481321 0.431938 0.570485 
24 1 256.254 -257.986 -251.104 0.472929 0.655629 0.409484 0.422861 
26 1 -246.903 -1.05642 -252.298 0.583639 0.457731 0.616744 0.263581 
27 1 5.73797 -3.38716 -263.789 0.512027 0.483349 0.467334 0.534603 
25 1 497.136 0.416347 -254.258 0.283675 0.247454 0.910442 0.171439 
28 1 244.809 1.5129 -253.933 0.242444 0.404704 0.589706 0.655502 
29 1 498.065 252.835 -250.061 0.04046 0.0438253 0.98702 0.14911 
30 1 -244.66 262.756 -246.706 0.968146 0.0828782 0.0930752 0.217169 
31 1 -1.99127 255.038 -238.339 0.683615 0.296997 0.536323 0.396007 
32 1 250.252 252.179 -235.943 0.921762 -0.0281493 0.379056 0.0766813 
19 1 8.61283 -499.96 -249.691 0.163981 0.85585 0.320451 0.371406 
20 1 242.575 494.407 -254.619 0.215845 0.390463 0.800997 0.39919 
17 1 497.679 497.994 -243.078 0.382237 0.787939 0.0599287 0.479015 
38 1 -250.904 -255.756 -6.13024 0.648687 0.300998 0.416215 0.561578 
40 1 244.881 -258.97 -4.20292 0.555533 0.539265 0.548961 0.314989 
47 1 9.11132 250.422 -0.528399 0.0103081 0.726523 0.461552 0.508947 
48 1 258.011 247.689 -8.61623 0.592468 0.502895 0.627201 0.0519382 
45 1 496.38 252.686 -3.76105 0.53336 0.754743 0.250216 0.288586 
33 1 498.75 486.268 -2.87503 0.340067 0.921089 0.00551036 0.189525 
34 1 -246.308 496.39 -0.285792 0.0157206 0.352241 0.578763 0.735332 
37 1 -495.096 -240.812 5.66189 0.329217 0.429486 0.496326 0.678836 
39 1 -5.82158 -250.003 11.0208 0.0182635 0.604197 0.358611 0.711344 
42 1 -250.447 2.76459 2.00659 0.883168 0.16041 0.403029 0.178467 
43 1 -3.92458 1.23087 11.9809 0.175079 0.157307 0.852603 0.466551 
44 1 251.082 2.51928 5.78352 0.363425 0.666033 0.366072 0.538808 
41 1 496.474 1.6808 13.181 0.513768 0.829206 0.0549785 0.213158 
46 1 -251.847 250.518 2.50089 0.744497 0.102044 0.385432 0.535493 
35 1 3.66661 491.4 7.16878 0.729256 0.623849 0.275226 0.0569862 
36 1 257.476 499.627 5.39429 0.010391 0.580359 0.599992 0.550532 
52 1 258.621 -497.215 249.856 0.389701 0.900557 0.187336 0.0451133 
54 1 -253.969 -253.263 251.459 0.463079 0.602773 0.438761 0.479282 
55 1 3.06415 -253.575 252.413 0.788261 0.469902 0.191144 0.348283 
53 1 497.09 -249.562 255.141 0.561271 0.100566 0.558749 0.602214 
50 1 -244.155 499.787 242.887 0.745653 0.399133 0.509971 0.156921 
51 1 10.9724 496.019 239.306 0.481118 0.780639 0.0751849 0.391759 
49 1 496.212 498.07 246.895 0.325087 0.632741 0.579176 0.398136 
3 1 1.84504 -493.414 494.236 0.137687 0.836345 0.524639 0.079514 
5 1 -493.306 -253.134 498.305 0.131197 0.547461 0.543127 0.622966 
7 1 -1.92973 -233.448 499.659 0.393689 0.422574 0.446831 0.683215 
8 1 247.44 -257.655 495.065 0.312822 0.754864 0.45498 0.354001 
11 1 -6.8129 -5.13978 499.036 0.519066 0.584395 0.42674 0.454913 
10 1 -250.317 5.53639 499.295 0.0380939 0.743685 0.567884 0.350698 
14 1 -249.945 250.963 492.983 0.507211 0.46734 0.613414 0.384776 
15 1 2.21029 254.491 499.742 0.591172 0.481104 0.548486 0.343829 
16 1 254.762 244.65 499.094 0.427337 0.410059 0.0950683 0.800123 
4 1 252.589 496.269 498.386 0.223241 0.780509 0.418636 0.407079 
ITEM: TIMESTEP
40000
ITEM: NUMBER OF ATOMS
55
ITEM: BOX BOUNDS pp pp pp
-5.0000000000000000e+02 5.0000000000000000e+02
-5.0000000000000000e+02 5.0000000000000000e+02
-5.0000000000000000e+02 5.0000000000000000e+02
ITEM: ATOMS id type x y z c_q[1] c_q[2] c_q[3] c_q[4] 
2 1 -253.208 -492.992 -496.372 0.420442 0.596473 0.519542 0.444437 
5 1 -489.135 -255.558 -498.097 0.124642 0.526719 0.546715 0.638854 
6 1 -239.467 -245.494 -494.587 0.332177 0.555892 0.607974 0.459358 
12 1 252.86 -10.1555 -497.11 0.755365 0.574407 0.112179 0.294782 
9 1 488.95 -0.452832 -494.433 0.488443 0.322439 0.806334 0.0853346 
10 1 -250.142 3.07649 -496.182 0.0520967 0.717698 0.574839 0.389558 
15 1 1.06254 254.665 -498.822 0.595919 0.514023 0.523257 0.3269 
16 1 253.366 245.563 -499.335 0.443151 0.327013 0.118247 0.826255 
13 1 490.882 254.24 -496.522 0.0294424 0.366505 0.923614 0.108369 
1 1 -499.006 498.644 -498.901 0.447228 0.725635 0.310135 0.421019 
18 1 -249.097 -499.372 -248.706 0.258551 0.677155 0.51664 0.455737 
22 1 -244.325 -241.823 -248.18 0.713707 0.473754 0.392969 0.334298 
23 1 4.94244 -255.369 -255.701 0.51832 0.471329 0.463906 0.542203 
24 1 254.328 -262.666 -253.385 0.433189 0.662121 0.435168 0.429618 
21 1 498.126 -249.148 -256.645 0.272333 0.774807 0.274183 0.500333 
27 1 -0.00786359 -5.55452 -263.527 0.506549 0.487404 0.491025 0.514529 
28 1 246.498 -1.72198 -255.351 0.259251 0.39151 0.589408 0.657348 
26 1 -249.262 2.28185 -252.132 0.59952 0.402574 0.627253 0.291657 
25 1 498.984 3.39082 -252.935 0.258348 0.247581 0.910303 0.208107 
30 1 -247.436 259.304 -244.335 0.965109 0.0870186 0.0853736 0.231739 
31 1 -6.83785 256.328 -241.261 0.64307 0.307866 0.572724 0.404558 
32 1 250.948 252.501 -237.101 0.896742 0.0215032 0.418051 0.143613 
29 1 495.321 248.99 -254.471 0.0162201 0.0480116 0.98878 0.140523 
19 1 10.4734 496.065 -249.409 0.200567 0.861096 0.278442 0.375175 
20 1 242.085 491.149 -252.132 0.22157 0.413516 0.812662 0.345676 
17 1 496.365 494.439 -246.166 0.368147 0.79831 0.081327 0.469633 
37 1 -489.016 -240.906 -0.482666 0.323043 0.44571 0.476857 0.685269 
38 1 -251.073 -260.225 -9.04368 0.655791 0.288172 0.413847 0.561806 
40 1 240.848 -259.433 -4.37867 0.525626 0.552534 0.553507 0.334745 
42 1 -254.678 1.5874 -1.134 0.875537 0.182124 0.407598 0.184739 
48 1 252.095 254.176 -9.28377 0.602264 0.52243 0.598038 0.0818232 
45 1 497.219 254.475 -1.07327 0.500668 0.765101 0.291303 0.281237 
33 1 496.66 478.007 -3.61831 0.362309 0.914052 -0.00578317 0.182227 
39 1 -7.56065 -246.364 14.0193 0.0402698 0.623056 0.339813 0.703354 
43 1 -9.19319 -1.84012 15.1743 0.190029 0.162983 0.848323 0.466556 
44 1 252.863 5.25458 11.8278 0.405415 0.65975 0.371718 0.512049 
41 1 498.488 2.24689 20.1252 0.526614 0.825849 0.0145954 0.201091 
46 1 -251.367 248.925 2.59895 0.718286 0.133135 0.397209 0.555487 
47 1 9.9137 254.38 3.08437 0.0279816 0.713484 0.46381 0.52444 
34 1 -249.108 496.926 0.845868 0.0198238 0.369618 0.587361 0.71972 
35 1 12.0907 487.694 10.4793 0.721048 0.611355 0.318797 0.0685831 
36 1 258.848 496.177 1.63903 0.0569625 0.594717 0.587905 0.545375 
54 1 -251.039 -249.771 251.004 0.444736 0.630418 0.468403 0.430559 
55 1 6.37688 -254.387 253.452 0.821426 0.455738 0.178816 0.292554 
53 1 497.033 -247.905 258.98 0.525072 0.0635184 0.538394 0.656047 
50 1 -240.834 499.344 242.077 0.757264 0.408623 0.499382 0.10098 
51 1 15.2123 492.705 237.916 0.419961 0.803057 0.080104 0.415109 
52 1 259.9 499.079 250.75 0.424141 0.872287 0.242763 0.0169302 
49 1 499.851 496.767 245.828 0.304164 0.654425 0.559405 0.407773 
3 1 -2.72619 -498.244 491.71 0.135994 0.821874 0.550053 0.0589078 
7 1 -4.94989 -235.129 498.225 0.381127 0.432934 0.476103 0.663805 
8 1 248.402 -259.268 498.854 0.303947 0.735744 0.496246 0.346462 
11 1 -1.16873 -3.46243 493.294 0.559134 0.570971 0.388568 0.458668 
14 1 -257.62 249.676 492.127 0.54321 0.473092 0.57345 0.390207 
4 1 248.732 495.56 497.056 0.234123 0.780757 0.466345 0.343697 
ITEM: TIMESTEP
50000
ITEM: NUMBER OF ATOMS
55
ITEM: BOX BOUNDS pp pp pp
-5.0000000000000000e+02 5.0000000000000000e+02
-5.0000000000000000e+02 5.0000000000000000e+02
-5.0000000000000000e+02 5.0000000000000000e+02
ITEM: ATOMS id type x y z c_q[1] c_q[2] c_q[3] c_q[4] 
2 1 -253.253 -493.691 -499.375 0.421747 0.557262 0.545507 0.462613 
5 1 -483.039 -262.538 -496.705 0.138447 0.508047 0.583096 0.618644 
6 1 -238.662 -250.262 -493.311 0.374381 0.5465 0.584239 0.468873 
12 1 249.258 -11.3767 -493.239 0.763 0.577903 0.138123 0.254521 
10 1 -250.128 7.72771 -494.192 0.067225 0.74444 0.537671 0.390128 
9 1 489.079 1.72622 -491.566 0.475318 0.348881 0.803942 0.0776681 
13 1 491.28 250.866 -492.056 0.0494588 0.419884 0.901243 0.0949326 
1 1 -498.219 497.799 -495.294 0.482145 0.718877 0.302418 0.399119 
22 1 -243.097 -242.95 -254.626 0.689323 0.459096 0.399867 0.392646 
23 1 2.78244 -256.708 -256.71 0.528786 0.461132 0.446546 0.555284 
24 1 252.879 -262.985 -252.98 0.429932 0.63171 0.430039 0.480798 
21 1 496.935 -250.597 -255.025 0.279169 0.766813 0.253547 0.519399 
27 1 -1.54041 -4.56589 -263.84 0.520805 0.472149 0.493966 0.511698 
25 1 -492.185 4.96772 -252.559 0.261536 0.25652 0.899842 0.236814 
26 1 -244.961 9.27552 -256.033 0.611282 0.360658 0.651764 0.267327 
28 1 245.321 2.23225 -259.649 0.274659 0.387879 0.558555 0.679801 
30 1 -239.948 256.976 -244.637 0.951864 0.100124 0.0932951 0.274274 
31 1 -2.13436 256.732 -243.818 0.647099 0.321063 0.525844 0.449077 
32 1 254.659 251.147 -240.918 0.896498 0.0216902 0.402536 0.183808 
29 1 488.948 253.154 -251.981 0.0325697 0.0364902 0.993061 0.106944 
17 1 -498.558 493.999 -247.701 0.371438 0.784684 0.088562 0.488326 
18 1 -247.894 496.265 -249.039 0.296015 0.667078 0.51356 0.451263 
19 1 10.3441 494.585 -246.049 0.192724 0.846104 0.305814 0.391719 
20 1 243.254 492.258 -253.533 0.191887 0.401118 0.830161 0.336328 
37 1 -484.804 -246.023 -1.76647 0.290918 0.410464 0.515033 0.693994 
38 1 -249.325 -257.437 -12.9581 0.677016 0.302871 0.382212 0.551211 
48 1 260.002 255.156 -0.613242 0.629693 0.498004 0.591946 0.0712709 
45 1 493.798 255.796 -6.92774 0.494084 0.771091 0.272094 0.295405 
33 1 499.336 474.752 -2.86948 0.353848 0.916051 -0.0353916 0.185442 
34 1 -249.451 499.712 2.28974 0.00303256 0.362556 0.57756 0.731415 
39 1 -5.49678 -241.029 17.0294 0.0527347 0.610106 0.351374 0.708186 
40 1 242.574 -264.043 1.39102 0.556347 0.555789 0.500912 0.361475 
43 1 -13.2446 -2.09882 23.354 0.216992 0.126993 0.855994 0.451732 
41 1 496.89 -0.890529 21.6318 0.546816 0.805212 0.00136388 0.229399 
42 1 -255.66 7.02067 6.04441 0.868235 0.18637 0.428979 0.165563 
44 1 255.08 10.7186 10.6849 0.437555 0.631167 0.384437 0.512232 
46 1 -250.562 249.641 2.42209 0.702106 0.169542 0.355807 0.593047 
47 1 3.43452 259.759 8.48531 -0.0179823 0.71287 0.454802 0.533524 
35 1 6.79074 491.27 5.27354 0.750584 0.574909 0.298565 0.13024 
36 1 260.179 494.506 6.59614 0.0171507 0.573834 0.623092 0.531202 
52 1 257.85 -496.344 249.654 0.423995 0.881093 0.206508 -0.0354574 
54 1 -252.578 -247.9 246.162 0.470386 0.632117 0.433436 0.437376 
55 1 4.81043 -258.166 255.154 0.826392 0.42513 0.222992 0.294305 
53 1 496.777 -246.337 253.433 0.508436 0.0980819 0.5715 0.636601 
49 1 -499.123 499.257 244.773 0.28435 0.670219 0.540005 0.422311 
50 1 -242.406 496.285 245.083 0.729844 0.424371 0.51695 0.14142 
51 1 19.7801 491.435 233.813 0.422088 0.796287 0.0791124 0.426039 
3 1 -6.5623 -499.169 490.905 0.174754 0.811231 0.557493 0.0237889 
7 1 -6.35895 -231.158 496.885 0.392378 0.45507 0.495812 0.626994 
8 1 250.024 -252.653 496.8 0.303632 0.718816 0.511804 0.3594 
11 1 2.67164 -0.668136 493.776 0.569842 0.613227 0.371506 0.401518 
14 1 -255.333 257.039 490.459 0.510657 0.456734 0.619139 0.383786 
15 1 2.44086 250.228 500.221 0.54629 0.526574 0.549953 0.349054 
16 1 256.587 246.214 -499.133 0.453365 0.332015 0.0722496 0.824019 
4 1 249.096 499.128 497.006 0.23279 0.780677 0.488044 0.313312 
ITEM: TIMESTEP
60000
ITEM: NUMBER OF ATOMS
55
ITEM: BOX BOUNDS pp pp pp
-5.0000000000000000e+02 5.0000000000000000e+02
-5.0000000000000000e+02 5.0000000000000000e+02
-5.0000000000000000e+02 5.0000000000000000e+02
ITEM: ATOMS id type x y z c_q[1] c_q[2] c_q[3] c_q[4] 
6 1 -241.289 -251.511 -495.431 0.364158 0.545159 0.558555 0.508141 
12 1 248.144 -11.764 -495.291 0.735314 0.635875 0.0883711 0.217181 
10 1 -250.247 6.6243 -493.354 0.095576 0.722311 0.543114 0.417324 
9 1 490.144 6.30972 -489.912 0.470078 0.31655 0.821759 0.0594532 
15 1 0.726024 257.1 -499.098 0.554937 0.502798 0.534606 0.391709 
16 1 257.983 246.534 -498.889 0.487238 0.368566 0.0441716 0.790447 
13 1 490.14 252.856 -499.865 0.000767502 0.460148 0.882217 0.0997836 
1 1 -492.54 498.16 -498.234 0.437256 0.757884 0.305713 0.375443 
22 1 -238.186 -240.759 -253.863 0.672245 0.446544 0.418949 0.416133 
23 1 10.3094 -253.235 -255.189 0.513707 0.439183 0.50293 0.538781 
24 1 253.188 -264.152 -254.897 0.432843 0.6197 0.412503 0.508389 
21 1 497.904 -247.883 -254.811 0.296661 0.760109 0.209737 0.538737 
27 1 -2.43352 -7.52201 -259.05 0.535056 0.512866 0.510495 0.43598 
25 1 -490.727 4.22436 -249.63 0.263829 0.279356 0.886425 0.258079 
26 1 -245.838 6.91581 -253.028 0.555969 0.365164 0.706901 0.24051 
28 1 252.105 2.95642 -264.22 0.302741 0.409731 0.559818 0.653508 
30 1 -235.944 255.344 -248.781 0.962144 0.129028 0.0632786 0.231574 
31 1 0.260039 260.71 -249.205 0.654461 0.328514 0.534908 0.421465 
32 1 253.741 244.71 -239.093 0.91375 0.00606826 0.353359 0.200406 
29 1 496.785 262.5 -248.111 0.0685893 0.0641655 0.990252 0.102858 
17 1 -496.386 490.481 -244.734 0.372794 0.760327 0.0956509 0.523239 
18 1 -247.196 497.933 -253.226 0.324973 0.674253 0.500002 0.435629 
19 1 7.58385 499.015 -245.088 0.216861 0.874792 0.263441 0.34396 
20 1 242.217 492.682 -254.217 0.18937 0.422552 0.829681 0.3118 
38 1 -253.062 -254.074 -11.7338 0.726881 0.317531 0.327554 0.513349 
46 1 -247.894 249.579 -3.83531 0.715308 0.163079 0.383015 0.561284 
48 1 254.873 253.413 -1.22133 0.657188 0.47582 0.577172 0.0925835 
45 1 494.606 256.408 -4.57233 0.503673 0.766386 0.273454 0.290153 
37 1 -490.333 -245.781 0.697662 0.329512 0.392593 0.531183 0.674639 
39 1 -4.17043 -240.587 18.4768 0.0297709 0.60367 0.379687 0.700381 
40 1 240.776 -262.047 0.416717 0.551301 0.571262 0.476788 0.37736 
43 1 -8.17903 -0.239524 22.6934 0.218581 0.157168 0.84119 0.468955 
41 1 497.866 0.666943 22.7935 0.586119 0.788101 -0.0468494 0.182114 
42 1 -253.482 0.930633 0.916149 0.85014 0.192578 0.461205 0.165729 
44 1 254.654 10.3743 13.8835 0.452837 0.63588 0.362098 0.509392 
47 1 4.62824 262.742 9.23671 -0.00110862 0.699107 0.44065 0.563095 
34 1 -247.131 497.419 3.17583 0.00826163 0.305636 0.575898 0.758196 
35 1 6.03055 490.299 10.31 0.752814 0.581178 0.273072 0.14469 
36 1 257.956 493.37 7.64794 0.0697384 0.586119 0.63607 0.497007 
33 1 495.136 473.645 4.75497 0.32467 0.922277 0.0363164 0.20658 
49 1 499.405 -494.906 249.193 0.246299 0.700855 0.550267 0.381241 
52 1 252.592 -492.225 247.669 0.396575 0.898773 0.184806 -0.027966 
54 1 -250.219 -243.081 244.96 0.531916 0.595592 0.397054 0.45242 
55 1 1.51285 -260.647 257.374 0.828732 0.388636 0.267635 0.300892 
53 1 498.384 -245.775 262.931 0.526344 0.0861795 0.540899 0.650356 
50 1 -241.67 489.626 242.347 0.739833 0.423446 0.508874 0.119948 
51 1 18.0455 486.256 229.888 0.425512 0.781075 0.0471895 0.45457 
2 1 -254.026 -490.522 493.864 0.434232 0.56824 0.537036 0.447367 
3 1 -10.5754 -495.998 490.042 0.185481 0.817972 0.54398 -0.0245745 
4 1 250.547 -499.339 496.526 0.248586 0.772886 0.496644 0.306916 
5 1 -482.893 -257.821 496.565 0.183664 0.487548 0.593258 0.613685 
7 1 -9.41963 -230.201 496.191 0.436706 0.455125 0.491252 0.600683 
8 1 254.939 -247.349 493.329 0.241171 0.703614 0.547067 0.384032 
11 1 -1.65625 5.7921 494.338 0.600613 0.617983 0.333821 0.381999 
14 1 -261.656 255.02 492.736 0.490981 0.448856 0.643351 0.3789 
ITEM: TIMESTEP
70000
ITEM: NUMBER OF ATOMS
55
ITEM: BOX BOUNDS pp pp pp
-5.0000000000000000e+02 5.0000000000000000e+02
-5.0000000000000000e+02 5.0000000000000000e+02
-5.0000000000000000e+02 5.0000000000000000e+02
ITEM: ATOMS id type x y z c_q[1] c_q[2] c_q[3] c_q[4] 
6 1 -242.186 -254.213 -499.095 0.344714 0.579788 0.559646 0.481471 
8 1 261.83 -243.486 -498.395 0.235453 0.655374 0.582336 0.419442 
12 1 249.741 -9.43493 -494.389 0.729261 0.650732 0.11755 0.175807 
10 1 -251.306 12.012 -490.311 0.0865149 0.71033 0.5603 0.417145 
9 1 486.296 6.50127 -487.37 0.445213 0.294488 0.842509 0.0723914 
16 1 255.548 248.28 -498.179 0.450566 0.356056 0.0395477 0.81771 
22 1 -237.814 -241.659 -255.498 0.654064 0.488895 0.414164 0.402058 
23 1 7.80161 -252.994 -256.672 0.517309 0.382163 0.525505 0.556944 
24 1 252.434 -262.508 -254.001 0.453974 0.62809 0.436305 0.457218 
21 1 496.755 -241.571 -257.842 0.289664 0.752265 0.251653 0.535597 
27 1 -0.491372 -11.4015 -264.252 0.556084 0.568849 0.45577 0.399318 
25 1 -487.462 9.76717 -245.2 0.266723 0.351615 0.858776 0.26025 
26 1 -245.181 5.83654 -252.597 0.549052 0.387933 0.694398 0.256635 
28 1 246.015 4.92641 -263.528 0.316904 0.397931 0.587921 0.628945 
30 1 -236.478 251.433 -251.18 0.963518 0.168072 0.0780225 0.193123 
31 1 -1.20652 258.598 -244.299 0.648777 0.315416 0.502208 0.476852 
32 1 256.975 245.224 -243.719 0.927891 0.0478835 0.343709 0.136343 
29 1 494.828 266.141 -246.605 0.0468021 0.112351 0.989342 0.0799358 
17 1 -491.535 490.417 -247.072 0.351359 0.766806 0.139467 0.518752 
18 1 -243.617 499.4 -249.25 0.354525 0.701933 0.492918 0.372337 
19 1 8.18696 493.759 -241.946 0.245064 0.885148 0.240306 0.31418 
20 1 247.849 488.878 -252.758 0.198897 0.414171 0.809487 0.365559 
37 1 -487.892 -245.259 -0.246013 0.342211 0.38762 0.521256 0.678922 
38 1 -257.207 -251.181 -11.6099 0.730702 0.325957 0.336362 0.496676 
40 1 237.971 -258.102 1.21272 0.570637 0.524677 0.490566 0.398036 
42 1 -255.147 5.17427 -0.974583 0.828694 0.189999 0.483281 0.208818 
46 1 -249.753 250.152 -6.26097 0.68486 0.150618 0.399566 0.590447 
48 1 256.667 260.446 -1.13482 0.63466 0.459268 0.611703 0.109992 
45 1 491.787 259.35 -7.91877 0.49969 0.763403 0.285289 0.293491 
39 1 -6.38659 -244.905 20.1785 0.0362784 0.591508 0.348029 0.726414 
43 1 -9.88921 1.91487 21.4669 0.231677 0.113614 0.823162 0.505788 
44 1 259.294 10.0166 17.083 0.481833 0.623346 0.363026 0.497482 
41 1 495.254 -0.571106 24.0142 0.57942 0.785405 -0.0243456 0.216376 
47 1 1.57066 264.018 9.32544 0.0299508 0.647512 0.461418 0.605743 
34 1 -248.068 493.856 6.16175 0.0365378 0.343041 0.565052 0.749469 
35 1 5.49307 489.909 10.7899 0.787041 0.564321 0.228184 0.100197 
36 1 257.271 490.105 9.87989 0.116275 0.580113 0.641187 0.488701 
33 1 494.064 473.559 9.40616 0.341709 0.910454 0.0453604 0.228585 
49 1 -498.635 -493.42 248.853 0.283648 0.693154 0.548323 0.372053 
52 1 249.699 -492.798 249.15 0.382682 0.901988 0.197792 0.0291705 
53 1 -498.749 -242.474 259.375 0.500428 0.105619 0.577183 0.636613 