ITEM: TIMESTEP
0
ITEM: NUMBER OF ATOMS
25
ITEM: BOX BOUNDS pp pp pp
-5.0000000000000000e+02 5.0000000000000000e+02
-5.0000000000000000e+02 5.0000000000000000e+02
-5.0000000000000000e+02 5.0000000000000000e+02
ITEM: ATOMS id type x y z c_q[1] c_q[2] c_q[3] c_q[4] 
1 1 -500 -500 -500 0.45063 0.512428 0.627657 0.374696 
2 1 -166.667 -500 -500 0.612218 0.144726 0.619612 0.469387 
3 1 166.667 -500 -500 0.194827 0.229378 0.953475 0.01772 
4 1 -500 -166.667 -500 0.270287 0.011658 0.702373 0.658393 
5 1 -166.667 -166.667 -500 0.326995 0.612295 0.511234 0.506763 
6 1 166.667 -166.667 -500 0.364173 0.424694 0.632953 0.535149 
7 1 -500 166.667 -500 0.61665 0.296252 0.637499 0.354362 
8 1 -166.667 166.667 -500 0.732093 0.140296 0.256742 0.615175 
9 1 166.667 166.667 -500 0.394844 0.716535 0.572936 0.049195 
10 1 -500 -500 -166.667 0.038712 0.423914 0.776024 0.465387 
11 1 -166.667 -500 -166.667 0.541401 0.43379 0.469508 0.546144 
12 1 166.667 -500 -166.667 0.473461 0.589585 0.649325 0.081251 
13 1 -500 -166.667 -166.667 0.354415 0.830114 0.254503 0.347173 
14 1 -166.667 -166.667 -166.667 0.46094 0.60891 0.071659 0.641582 
15 1 166.667 -166.667 -166.667 0.48695 0.360514 0.637891 0.475399 
16 1 -500 166.667 -166.667 0.679104 0.035122 0.611484 0.404563 
17 1 -166.667 166.667 -166.667 0.649414 0.26802 0.21255 0.679153 
18 1 166.667 166.667 -166.667 0.928899 0.260399 0.117475 0.235667 
19 1 -500 -500 166.667 0.611515 0.141641 0.002342 0.778448 
20 1 -166.667 -500 166.667 0.364376 0.246348 0.35392 0.825399 
21 1 166.667 -500 166.667 0.577488 0.325315 0.659594 0.35442 
22 1 -500 -166.667 166.667 0.748702 0.126164 0.373914 0.532651 
23 1 -166.667 -166.667 166.667 0.063217 0.593162 0.709834 0.374565 
24 1 166.667 -166.667 166.667 0.234986 0.714294 0.635668 0.174619 
25 1 -500 166.667 166.667 0.267708 0.253172 0.621063 0.691749 
ITEM: TIMESTEP
10000
ITEM: NUMBER OF ATOMS
25
ITEM: BOX BOUNDS pp pp pp
-5.0000000000000000e+02 5.0000000000000000e+02
-5.0000000000000000e+02 5.0000000000000000e+02
-5.0000000000000000e+02 5.0000000000000000e+02
ITEM: ATOMS id type x y z c_q[1] c_q[2] c_q[3] c_q[4] 
6 1 168.092 -165.546 -496.16 0.369046 0.411118 0.624163 0.552456 
7 1 -497.364 162.823 -499.191 0.591125 0.26421 0.644501 0.406673 
8 1 -167.778 165.3 -497.303 0.747761 0.131578 0.239045 0.605308 
1 1 498.286 498.069 -498.27 0.480624 0.515599 0.616525 0.350792 
15 1 166.605 -166.165 -168.992 0.515946 0.329504 0.579218 0.538269 
17 1 -167.875 164.999 -166.961 0.646003 0.290272 0.248686 0.66074 
16 1 494.109 166.986 -168.379 0.668295 0.0185879 0.612739 0.421411 
10 1 499.308 497.076 -168.117 0.0509768 0.379808 0.792986 0.473625 
12 1 169.275 497.597 -168.198 0.483246 0.587518 0.646366 0.0592141 
13 1 -498.848 -173.413 -166.5 0.33555 0.830793 0.260516 0.359611 
14 1 -170.09 -167.865 -165.318 0.477468 0.633709 0.0681997 0.604802 
18 1 168.193 169.731 -162.03 0.927048 0.272684 0.132158 0.220815 
11 1 -164.396 494.934 -165.338 0.548492 0.390558 0.468441 0.572 
21 1 164.691 -498.207 164.446 0.559265 0.329542 0.672329 0.355806 
24 1 169.195 -161.339 164.451 0.22967 0.701048 0.655197 0.162787 
22 1 494.205 -162.178 164.972 0.765139 0.186053 0.32236 0.525386 
25 1 -494.603 164.499 167.034 0.306945 0.265269 0.638943 0.653582 
20 1 -168.74 -499.431 169.49 0.320016 0.28378 0.345257 0.835378 
23 1 -168.407 -164.174 169.9 0.0738946 0.543509 0.744799 0.380015 
19 1 497.012 -499.676 166.932 0.597166 0.132846 -0.00427842 0.791029 
2 1 -169.148 -498.848 496.897 0.627587 0.121395 0.585676 0.49838 
3 1 163.939 -493.377 498.308 0.169625 0.224282 0.959259 0.0273346 
4 1 498.582 -169.096 498.396 0.305092 0.0493074 0.660134 0.684625 
5 1 -163.337 -163.843 494.057 0.250249 0.604208 0.526241 0.543487 
9 1 166.69 169.199 498.398 0.392303 0.712397 0.581884 -0.000206198 
ITEM: TIMESTEP
20000
ITEM: NUMBER OF ATOMS
25
ITEM: BOX BOUNDS pp pp pp
-5.0000000000000000e+02 5.0000000000000000e+02
-5.0000000000000000e+02 5.0000000000000000e+02
-5.0000000000000000e+02 5.0000000000000000e+02
ITEM: ATOMS id type x y z c_q[1] c_q[2] c_q[3] c_q[4] 
1 1 -496.679 -498.029 -499.855 0.494657 0.512997 0.604371 0.356209 
8 1 -172.092 169.098 -492.911 0.737592 0.113351 0.224113 0.626804 
13 1 -495.604 -169.197 -168.627 0.344886 0.812218 0.272371 0.383626 
16 1 493.793 162.815 -174.253 0.642257 -0.0409904 0.613928 0.457075 
12 1 170.267 498.501 -173.697 0.445456 0.612698 0.652572 0.0179061 
14 1 -168.264 -171.544 -166.879 0.444614 0.657023 0.0719141 0.604539 
15 1 168.118 -160.349 -161.975 0.515269 0.309411 0.593442 0.535341 
17 1 -167.067 169.221 -163.825 0.646853 0.325055 0.282784 0.629248 
18 1 165.784 173.328 -153.649 0.93343 0.22484 0.0972264 0.262113 
11 1 -166.251 491.701 -165.23 0.585964 0.366531 0.47305 0.546374 
10 1 496.512 496.964 -162.764 0.0419013 0.367277 0.816161 0.444108 
24 1 171.422 -167.535 158.269 0.240836 0.694068 0.651641 0.188767 
22 1 493.949 -159.024 159.349 0.787731 0.184739 0.333173 0.484094 
25 1 -499.48 161.119 167.206 0.26604 0.315471 0.646296 0.641874 
20 1 -169.454 497.067 166.347 0.316482 0.264449 0.341584 0.844527 
21 1 157.541 -498.46 167.916 0.557993 0.320062 0.674102 0.36303 
23 1 -171.512 -164.392 168.048 0.10641 0.581565 0.723359 0.356665 
19 1 -497.509 492.901 170.108 0.614154 0.161647 -0.00207825 0.772451 
2 1 -171.502 -498.075 493.615 0.597028 0.110478 0.601685 0.518968 
3 1 159.52 -492.261 498.077 0.155542 0.181603 0.969897 0.0461111 
4 1 498.05 -175.212 498.176 0.282035 0.0429297 0.677574 0.677869 
5 1 -173.633 -165.956 494.809 0.220932 0.61349 0.510076 0.560929 
6 1 170.784 -161.853 499.659 0.379201 0.449009 0.603876 0.538453 
7 1 497.429 160.026 498.978 0.570388 0.308102 0.646923 0.401525 
9 1 161.308 167.389 498.164 0.411292 0.699508 0.584025 0.0210171 
ITEM: TIMESTEP
30000
ITEM: NUMBER OF ATOMS
25
ITEM: BOX BOUNDS pp pp pp
-5.0000000000000000e+02 5.0000000000000000e+02
-5.0000000000000000e+02 5.0000000000000000e+02
-5.0000000000000000e+02 5.0000000000000000e+02
ITEM: ATOMS id type x y z c_q[1] c_q[2] c_q[3] c_q[4] 
1 1 -493.763 -498.01 -497.277 0.537041 0.474635 0.594565 0.364419 
3 1 164.211 -485.97 -500.272 0.112836 0.187027 0.974947 0.0420313 
8 1 -169.109 178.359 -494.111 0.787554 0.125707 0.252976 0.547686 
12 1 173.44 -500.357 -178.87 0.411812 0.595326 0.689876 -0.00830331 
13 1 -491.234 -167.833 -175.952 0.328227 0.81264 0.279386 0.392208 
14 1 -171.446 -171.069 -172.492 0.432453 0.629926 0.0702244 0.641285 
16 1 495.835 160.101 -176.817 0.659134 -0.0340411 0.631708 0.406605 
15 1 167.473 -166.043 -161.318 0.49018 0.285363 0.610188 0.553138 
17 1 -167.617 165.316 -164.119 0.673083 0.303818 0.247122 0.627363 
18 1 165.192 169.182 -155.232 0.928098 0.219875 0.140322 0.265705 
11 1 -167.216 494.835 -166.322 0.575081 0.375209 0.470558 0.554143 
10 1 498.071 499.219 -157.06 0.0689541 0.373396 0.807729 0.450993 
21 1 155.665 -497.444 168.053 0.560327 0.307445 0.680426 0.358514 
24 1 169.192 -175.621 158.656 0.233052 0.685619 0.657525 0.208027 
23 1 -166.872 -164.825 167.13 0.13432 0.606026 0.720771 0.308512 
22 1 494.767 -156.302 159.76 0.759616 0.150657 0.373187 0.510899 
20 1 -163.931 -499.575 169.918 0.308399 0.227536 0.380679 0.841547 
25 1 -497.06 162.734 172.783 0.269028 0.33536 0.652501 0.624019 
19 1 499.092 490.037 171.726 0.623979 0.140585 -0.010862 0.768614 
2 1 -170.039 499.756 488.959 0.568572 0.0594117 0.623934 0.532826 
4 1 499.494 -170.547 495.347 0.326228 0.0191103 0.674857 0.661648 
5 1 -175.099 -167.354 494.413 0.250559 0.548802 0.529634 0.596259 
6 1 165.277 -163.509 498.79 0.38355 0.459072 0.59352 0.538401 
9 1 164.631 166.746 -499.3 0.42708 0.710971 0.55487 0.0651308 
7 1 495.187 154.571 500.015 0.580425 0.348834 0.621162 0.394436 
ITEM: TIMESTEP
40000
ITEM: NUMBER OF ATOMS
25
ITEM: BOX BOUNDS pp pp pp
-5.0000000000000000e+02 5.0000000000000000e+02
-5.0000000000000000e+02 5.0000000000000000e+02
-5.0000000000000000e+02 5.0000000000000000e+02
ITEM: ATOMS id type x y z c_q[1] c_q[2] c_q[3] c_q[4] 
1 1 -492.456 -499.917 -496.864 0.511124 0.490254 0.608239 0.358397 
3 1 164.993 -490.057 -499.196 0.116816 0.158224 0.977606 0.0748729 
9 1 162.451 164.793 -492.437 0.363299 0.706202 0.60087 0.0908163 
8 1 -163.689 178.299 -497.26 0.767424 0.147515 0.233406 0.578637 
13 1 -495.204 -169.552 -175.712 0.322617 0.803383 0.28689 0.410107 
14 1 -172.386 -172.447 -169.996 0.403271 0.688453 0.056486 0.600179 
16 1 -498.924 159.039 -178.479 0.697075 -0.0561898 0.601797 0.385706 
11 1 -171.634 492.993 -167.448 0.567138 0.354118 0.476438 0.570931 
12 1 173.429 497.153 -179.545 0.42496 0.606222 0.671438 -0.0327782 
10 1 499.002 -490.902 -156.651 0.0395784 0.396481 0.790581 0.464992 
15 1 168.755 -168.159 -160.27 0.47805 0.237318 0.61065 0.585025 
17 1 -163.618 160.893 -166.999 0.679969 0.231762 0.208925 0.663535 
18 1 168.743 172.514 -159.128 0.934291 0.202225 0.20875 0.206467 
24 1 169.802 -172.821 163.335 0.237717 0.707625 0.640616 0.179912 
22 1 496.911 -156.506 161.747 0.704095 0.158369 0.397763 0.566529 
21 1 155.837 499.367 163.937 0.578911 0.275359 0.672959 0.369006 
19 1 498.482 492.916 164.22 0.622126 0.13723 -0.0496462 0.769196 
23 1 -171.075 -165.132 168.232 0.150326 0.553604 0.761416 0.301946 
25 1 -495.771 161.317 168.16 0.230769 0.366472 0.644544 0.630085 
20 1 -160.568 499.132 169.215 0.241366 0.251284 0.371904 0.860399 
2 1 -169.454 -495.94 490.439 0.582064 0.0675546 0.633472 0.505323 
4 1 -497.898 -175.878 496.858 0.365063 -0.0256634 0.695984 0.6178 
5 1 -178.126 -162.072 495.947 0.237893 0.615448 0.506371 0.555174 
6 1 162.476 -163.111 497.757 0.366263 0.459337 0.62355 0.515797 
7 1 497.12 153.814 497.748 0.580427 0.317542 0.588397 0.464823 
ITEM: TIMESTEP
50000
ITEM: NUMBER OF ATOMS
25
ITEM: BOX BOUNDS pp pp pp
-5.0000000000000000e+02 5.0000000000000000e+02
-5.0000000000000000e+02 5.0000000000000000e+02
-5.0000000000000000e+02 5.0000000000000000e+02
ITEM: ATOMS id type x y z c_q[1] c_q[2] c_q[3] c_q[4] 
3 1 159.769 -493.59 -498.827 0.127129 0.138966 0.976898 0.100982 
9 1 162.024 163.734 -494.073 0.370991 0.711014 0.587883 0.105923 
12 1 177.781 -495.116 -180.239 0.416902 0.626999 0.65742 -0.029399 
13 1 -488.361 -165.669 -179.768 0.321819 0.772337 0.338854 0.43024 
16 1 499.469 159.385 -180.421 0.700435 -0.0823874 0.582711 0.403795 
10 1 495.076 -486.678 -155.422 0.00876426 0.362185 0.81662 0.449307 
14 1 -169.426 -172.2 -168.379 0.368382 0.688604 0.0957463 0.617212 
15 1 167.935 -166.958 -166.022 0.447198 0.283704 0.614397 0.584843 
17 1 -162.151 155.724 -163.725 0.673141 0.217148 0.205569 0.676365 
18 1 166.599 171.04 -158.995 0.944299 0.202046 0.203295 0.161705 
11 1 -172.538 494.102 -164.466 0.553104 0.325097 0.44511 0.624712 
21 1 156.087 -499.053 160.799 0.589377 0.328938 0.6397 0.36772 
24 1 174.81 -173.998 165.119 0.195192 0.714141 0.645992 0.186003 
22 1 494.779 -162.163 159.745 0.670891 0.178755 0.424955 0.580831 
19 1 -495.39 491.707 158.864 0.62585 0.1523 -0.0911274 0.759482 
20 1 -159.02 -499.311 169.678 0.292457 0.235267 0.397925 0.837122 
23 1 -168.289 -169.464 166.666 0.166417 0.56096 0.74051 0.330565 
25 1 -494.372 162.392 169.349 0.247324 0.331595 0.658079 0.629133 
1 1 -495.738 -496.244 499.402 0.510345 0.523196 0.602743 0.32018 
2 1 -164.792 -498.974 488.508 0.596645 0.0868199 0.626198 0.494321 
4 1 -495.516 -180.662 497.306 0.340582 -0.066089 0.694994 0.629778 
5 1 -178.911 -161.43 496.515 0.207251 0.633937 0.461172 0.585227 
6 1 163.574 -163.166 498.239 0.365123 0.474971 0.61109 0.517355 
7 1 -498.584 155.828 490.986 0.55744 0.322626 0.608127 0.464063 
8 1 -160.927 176.95 496.817 0.784365 0.14983 0.226331 0.557761 
ITEM: TIMESTEP
60000
ITEM: NUMBER OF ATOMS
25
ITEM: BOX BOUNDS pp pp pp
-5.0000000000000000e+02 5.0000000000000000e+02
-5.0000000000000000e+02 5.0000000000000000e+02
-5.0000000000000000e+02 5.0000000000000000e+02
ITEM: ATOMS id type x y z c_q[1] c_q[2] c_q[3] c_q[4] 
3 1 155.636 -496.694 -497.903 0.121818 0.118111 0.984527 0.0437876 
9 1 163.866 163.024 -493.284 0.360502 0.718653 0.578398 0.137955 
14 1 -170.439 -174.064 -177.134 0.348812 0.687152 0.0823676 0.631955 
13 1 -490.549 -163.226 -180.808 0.355084 0.738732 0.39028 0.41937 
16 1 499.784 154.784 -179.435 0.683696 -0.117395 0.564236 0.447678 
12 1 181.049 498.472 -180.17 0.426015 0.632874 0.645462 -0.0368826 
10 1 496.272 -486.351 -155.348 0.0339255 0.336883 0.817712 0.465518 
15 1 165.191 -163.941 -159.443 0.459259 0.291803 0.604886 0.581416 
17 1 -161.807 158.107 -167.05 0.636447 0.258534 0.230115 0.689306 
18 1 166.8 168.169 -163.64 0.943016 0.221676 0.209011 0.133775 
11 1 -170.28 498.263 -164.567 0.588933 0.363914 0.431032 0.578736 
24 1 176.871 -174.441 159.53 0.20553 0.698016 0.666959 0.1603 
22 1 496.909 -162.097 160.773 0.674362 0.216922 0.427081 0.561946 
19 1 -491.766 491.408 161.865 0.635601 0.141213 -0.0333136 0.758262 
21 1 156.455 496.958 163.458 0.587926 0.35144 0.611623 0.395917 
23 1 -168.584 -171.568 172.766 0.203377 0.55658 0.70546 0.388822 
25 1 -490.194 163.666 170.78 0.274542 0.3083 0.624703 0.662815 
20 1 -159.691 498.359 166.947 0.274957 0.239876 0.436862 0.822198 
1 1 -497.34 -494.376 -498.744 0.508979 0.556461 0.60808 0.248051 
2 1 -170.693 -495.994 480.789 0.63561 0.0797936 0.5978 0.481942 
4 1 -494.178 -185.726 495.475 0.341965 -0.125649 0.673752 0.642908 
5 1 -178.532 -162.047 493.834 0.253338 0.662558 0.391546 0.586114 
6 1 165.032 -161.73 492.639 0.34595 0.494732 0.603307 0.521133 
7 1 499.169 153.517 489.348 0.58616 0.355875 0.567351 0.45594 
8 1 -160.364 176.565 497.804 0.804279 0.0879766 0.192487 0.555287 
ITEM: TIMESTEP
70000
ITEM: NUMBER OF ATOMS
25
ITEM: BOX BOUNDS pp pp pp
-5.0000000000000000e+02 5.0000000000000000e+02
-5.0000000000000000e+02 5.0000000000000000e+02
-5.0000000000000000e+02 5.0000000000000000e+02
ITEM: ATOMS id type x y z c_q[1] c_q[2] c_q[3] c_q[4] 
3 1 160.4 -496.173 -499.306 0.131129 0.0773557 0.984457 0.087555 
1 1 497.944 -491.629 -496.71 0.461126 0.556888 0.65369 0.223446 
9 1 159.805 163.428 -489.253 0.3716 0.680692 0.608111 0.169628 
12 1 186.513 -498.599 -171.095 0.412892 0.630032 0.653844 -0.071191 
14 1 -172.401 -178.261 -178.476 0.337088 0.722733 0.0590788 0.600449 
13 1 -485.699 -163.32 -175.952 0.403451 0.723028 0.327049 0.455517 
17 1 -157.463 159.611 -171.428 0.588357 0.308079 0.240694 0.707806 
16 1 498.96 150.619 -179.492 0.681953 -0.158642 0.553477 0.45104 
10 1 -496.862 -486.933 -151.831 0.0779879 0.283633 0.844778 0.447013 
15 1 162.399 -161.956 -166.917 0.479374 0.271823 0.641412 0.533763 
18 1 162.463 167.306 -163.508 0.932576 0.260098 0.213684 0.130346 
11 1 -168.52 499.081 -162.682 0.534719 0.404764 0.476955 0.568116 
21 1 163.706 -496.877 161.941 0.569599 0.336616 0.651585 0.371057 
22 1 -495.773 -166.799 160.313 0.639591 0.194411 0.504128 0.546793 
24 1 176.719 -171.74 161.615 0.217686 0.700919 0.660326 0.159042 
19 1 -487.48 497.208 163.762 0.64416 0.131423 -0.0287161 0.752968 
20 1 -158.312 497.674 160.932 0.295707 0.258254 0.465286 0.793329 
23 1 -164.614 -175.143 173.276 0.214039 0.530087 0.726608 0.381098 
25 1 -487.086 165.538 171.554 0.31953 0.320264 0.604824 0.655377 
2 1 -172.655 -493.476 482.741 0.638442 0.101533 0.614865 0.451689 
4 1 -495.496 -186.345 491.17 0.325857 -0.161037 0.645142 0.672068 
5 1 -176.402 -159.023 491.462 0.26626 0.640189 0.421 0.584827 
6 1 162.379 -159.403 496.342 0.348123 0.507352 0.569655 0.544883 
7 1 495.678 155.916 493.264 0.597621 0.354025 0.571027 0.437542 
8 1 -158.774 173.874 492.565 0.822279 0.101234 0.182244 0.529524 
ITEM: TIMESTEP
80000
ITEM: NUMBER OF ATOMS
25
ITEM: BOX BOUNDS pp pp pp
-5.0000000000000000e+02 5.0000000000000000e+02
-5.0000000000000000e+02 5.0000000000000000e+02
-5.0000000000000000e+02 5.0000000000000000e+02
ITEM: ATOMS id type x y z c_q[1] c_q[2] c_q[3] c_q[4] 
1 1 491.912 -491.394 -491.848 0.475809 0.55959 0.64491 0.211083 
6 1 160.697 -159.689 -498.751 0.342741 0.473189 0.567937 0.579714 
9 1 159.796 163.879 -491.337 0.433641 0.699507 0.557644 0.108064 
12 1 187.929 -497.218 -170.178 0.324778 0.689483 0.632031 -0.140249 
13 1 -487.284 -166.228 -176.93 0.373099 0.755715 0.30525 0.443299 
14 1 -171.1 -180.955 -181.634 0.312592 0.745509 0.0357084 0.587561 
15 1 161.205 -159.904 -171.471 0.511275 0.253397 0.649092 0.503058 
16 1 -497.954 152.811 -181.53 0.731132 -0.129198 0.533394 0.405271 
17 1 -156.148 154.917 -173.486 0.537128 0.316668 0.253186 0.73967 
10 1 -494.527 -484.885 -155.482 0.0825733 0.275436 0.872412 0.395239 
18 1 163.44 162.954 -162.63 0.930055 0.252928 0.23677 0.122337 
11 1 -169.793 499.781 -164.572 0.526627 0.412459 0.434011 0.60347 
19 1 -488.647 -496.985 163.815 0.617416 0.178645 -0.00339474 0.766076 
21 1 160.108 500.248 162.178 0.588769 0.292533 0.632104 0.410147 
22 1 -494.435 -169.31 161.168 0.660703 0.14888 0.519014 0.521469 
24 1 177.024 -166.797 158.966 0.242593 0.698187 0.647236 0.186464 
20 1 -160.671 494.124 162.039 0.260573 0.278877 0.472522 0.794388 
23 1 -169.053 -178.255 175.285 0.197825 0.546692 0.726838 0.365651 
25 1 -491.209 166.716 172.129 0.366753 0.336469 0.567475 0.655936 
2 1 -173.401 -488.728 480.625 0.66979 0.109634 0.567223 0.466497 
3 1 162.252 -494.266 497.957 0.110162 0.0844808 0.985206 0.100478 
4 1 -488.105 -187.028 493.095 0.334485 -0.173575 0.664124 0.645702 
5 1 -171.846 -161.297 489.04 0.298973 0.595513 0.420447 0.615795 
7 1 486.839 157.803 495.339 0.627471 0.358722 0.538945 0.432594 
8 1 -159.803 173.618 487.887 0.815439 0.0887909 0.194892 0.537766 
ITEM: TIMESTEP
90000
ITEM: NUMBER OF ATOMS
25
ITEM: BOX BOUNDS pp pp pp
-5.0000000000000000e+02 5.0000000000000000e+02
-5.0000000000000000e+02 5.0000000000000000e+02
-5.0000000000000000e+02 5.0000000000000000e+02
ITEM: ATOMS id type x y z c_q[1] c_q[2] c_q[3] c_q[4] 
1 1 488.265 -490.973 -493.488 0.45433 0.590005 0.630942 0.217696 
6 1 160.6 -159.538 -498.615 0.399523 0.511095 0.507527 0.56708 
9 1 157.373 159.155 -495.217 0.476139 0.686295 0.542148 0.0914648 
3 1 162.065 498.155 -499.231 0.108253 0.0604634 0.987848 0.0937081 
11 1 -170.509 -498.874 -169.183 0.537762 0.424786 0.408764 0.602729 
12 1 184.878 -498.58 -171.692 0.323762 0.728664 0.57347 -0.188039 
14 1 -171.506 -183.081 -185.348 0.333093 0.722955 0.0478409 0.603403 
13 1 -486.67 -156.821 -178.166 0.327139 0.755793 0.305872 0.477703 
15 1 162.78 -160.259 -170.809 0.465033 0.257696 0.640147 0.554571 
16 1 -495.054 154.204 -182.945 0.74019 -0.103015 0.529889 0.400905 
17 1 -161.752 158.564 -169.328 0.527524 0.303956 0.223863 0.761062 
10 1 -497.802 -485.864 -151.429 0.108594 0.216869 0.897629 0.368018 
18 1 159.892 160.556 -164.846 0.920367 0.268742 0.240323 0.151482 
19 1 -491.889 -494.497 162.642 0.620624 0.181498 -0.0381726 0.761858 
21 1 164.037 -496.504 156.155 0.588272 0.277648 0.6285 0.426422 
22 1 -493.104 -174.496 164.614 0.716385 0.0848258 0.502271 0.476782 
24 1 179.328 -167.605 158.33 0.211228 0.710039 0.634497 0.220548 
20 1 -163.969 493.24 164.747 0.298022 0.293312 0.440463 0.794445 
23 1 -170.766 -180.707 175.123 0.17006 0.526324 0.75221 0.358111 
25 1 -488.491 163.591 175.287 0.394582 0.392405 0.582144 0.592817 
2 1 -169.662 -484.687 479.845 0.644237 0.137912 0.587806 0.469492 
4 1 -488.053 -188.43 493.292 0.315971 -0.149866 0.66927 0.655577 
5 1 -171.182 -162.784 488.928 0.315899 0.572854 0.425052 0.625601 
7 1 485.7 158.019 493.282 0.622948 0.36406 0.564947 0.400289 
8 1 -159.613 170.061 490.973 0.824434 0.0830735 0.191578 0.526028 
ITEM: TIMESTEP
100000
ITEM: NUMBER OF ATOMS
25
ITEM: BOX BOUNDS pp pp pp
-5.0000000000000000e+02 5.0000000000000000e+02
-5.0000000000000000e+02 5.0000000000000000e+02
-5.0000000000000000e+02 5.0000000000000000e+02
ITEM: ATOMS id type x y z c_q[1] c_q[2] c_q[3] c_q[4] 
1 1 487.035 -489.544 -495.591 0.427995 0.614498 0.640894 0.168723 
6 1 159.956 -159.417 -497.667 0.393231 0.542143 0.492886 0.55544 
9 1 157.584 157.833 -496.289 0.484629 0.662223 0.563696 0.094032 
3 1 163.26 495.265 -496.998 0.127893 0.0974197 0.980893 0.109549 
11 1 -171.326 -496.197 -175.33 0.574488 0.407001 0.383538 0.597673 
14 1 -172.516 -182.535 -185.572 0.355223 0.709091 0.0777183 0.604125 
13 1 -486.942 -155.697 -173.732 0.32205 0.730327 0.306909 0.518376 
15 1 158.293 -163.109 -171.779 0.500472 0.213291 0.64045 0.542087 
16 1 -495.889 152.616 -185.059 0.741273 -0.0755485 0.536372 0.396373 
17 1 -164.35 156.484 -170.926 0.49153 0.294203 0.246831 0.781612 
12 1 185.896 495.106 -173.161 0.310237 0.741154 0.559211 -0.20427 
10 1 -499.061 -489.138 -153.722 0.135042 0.270909 0.882652 0.359578 
18 1 160.015 154.547 -160.559 0.914172 0.287057 0.233849 0.164933 
19 1 -489.84 -496.316 162.917 0.61117 0.200864 0.0307748 0.764969 
21 1 164.411 -496.89 157.935 0.612353 0.276103 0.610023 0.420314 
22 1 -492.457 -173.36 163.109 0.748657 0.0206955 0.471351 0.465738 
24 1 177.461 -162.746 158.011 0.248049 0.699514 0.635035 0.214202 
20 1 -162.062 496.975 163.499 0.304477 0.294415 0.395586 0.814938 
23 1 -175.56 -181.949 179.99 0.178265 0.542962 0.749064 0.335137 
25 1 -489.368 167.761 175.335 0.392524 0.384929 0.576303 0.604673 
2 1 -171.895 -485.957 478.995 0.599138 0.187511 0.61664 0.475003 
4 1 -484.249 -190.844 494.127 0.250749 -0.130561 0.651756 0.70377 
5 1 -170.561 -166.93 486.961 0.32026 0.569632 0.418145 0.630958 
7 1 486.404 162.073 493.368 0.606846 0.35818 0.583711 0.403393 
8 1 -158.201 177.021 489.605 0.811992 0.110019 0.191819 0.540158 
ITEM: TIMESTEP
110000
ITEM: NUMBER OF ATOMS
25
ITEM: BOX BOUNDS pp pp pp
-5.0000000000000000e+02 5.0000000000000000e+02
-5.0000000000000000e+02 5.0000000000000000e+02
-5.0000000000000000e+02 5.0000000000000000e+02
ITEM: ATOMS id type x y z c_q[1] c_q[2] c_q[3] c_q[4] 
1 1 492.311 -487.655 -495.96 0.426986 0.645588 0.616232 0.145456 
6 1 161.824 -160.604 -498.802 0.414208 0.561805 0.498303 0.514297 
9 1 155.501 153.993 -496.204 0.523847 0.671933 0.522249 0.0366874 
14 1 -168.97 -184.083 -185.456 0.366299 0.698769 0.10218 0.605893 
15 1 155.964 -168.418 -169.895 0.523253 0.210192 0.623056 0.542058 
13 1 -493.501 -160.858 -176.853 0.345524 0.716284 0.335435 0.505008 
16 1 -495.242 153.028 -180.832 0.705886 -0.0390415 0.55336 0.440447 
17 1 -160.929 156.046 -175.388 0.476926 0.292637 0.254778 0.788666 
11 1 -173.244 498.847 -180.74 0.59294 0.410207 0.382094 0.578063 
12 1 186.243 497.631 -174.2 0.363403 0.733214 0.543375 -0.187292 
10 1 499.471 -485.529 -153.193 0.111401 0.227684 0.902802 0.347418 
18 1 158.91 154.69 -157.051 0.912298 0.261634 0.274967 0.153796 
21 1 162.083 -496.648 160.187 0.557739 0.288187 0.656554 0.418105 
22 1 -497.016 -167.109 164.572 0.732673 -0.0215452 0.493077 0.468616 
24 1 174.877 -159.909 158.161 0.266487 0.690499 0.620708 0.258684 
20 1 -158.795 493.566 163.066 0.290068 0.244285 0.402805 0.833026 
19 1 -486.931 -497.462 170.42 0.591696 0.20326 0.016905 0.779933 
23 1 -173.462 -185.192 183.363 0.178901 0.528054 0.755179 0.344757 
25 1 -492.982 170.409 178.535 0.382845 0.356231 0.622719 0.582023 
2 1 -172.382 -483.863 482.844 0.568495 0.177732 0.635699 0.491031 
4 1 -483.031 -191.759 498.149 0.256422 -0.12557 0.6801 0.675236 
5 1 -169.715 -167.04 485.917 0.28947 0.553616 0.434515 0.648778 
7 1 481.034 162.075 498.352 0.618017 0.324228 0.578788 0.421825 
8 1 -158.268 178.31 494.111 0.779441 0.125262 0.221839 0.572336 
3 1 165.06 492.179 498.601 0.0832106 0.1722 0.974606 0.116477 
ITEM: TIMESTEP
120000
ITEM: NUMBER OF ATOMS
25
ITEM: BOX BOUNDS pp pp pp
-5.0000000000000000e+02 5.0000000000000000e+02
-5.0000000000000000e+02 5.0000000000000000e+02
-5.0000000000000000e+02 5.0000000000000000e+02
ITEM: ATOMS id type x y z c_q[1] c_q[2] c_q[3] c_q[4] 
1 1 493.971 -486.197 -494.214 0.425489 0.667415 0.580158 0.19218 
6 1 156.307 -163.581 -495.285 0.39109 0.517605 0.534659 0.541547 
7 1 484.874 163.902 -499 0.615308 0.281186 0.586741 0.445045 
14 1 -170.59 -185.779 -186.458 0.413911 0.657187 0.0830183 0.624412 
15 1 154.283 -168.057 -167.748 0.49403 0.175127 0.620349 0.583465 
13 1 -491.408 -163.452 -175.285 0.316884 0.74251 0.324186 0.49312 
16 1 -495.168 149.637 -182.447 0.714754 0.0403359 0.537835 0.445234 
17 1 -164.779 155.442 -178.684 0.47359 0.319575 0.258652 0.778899 
11 1 -174.307 491.012 -183.038 0.580447 0.406803 0.383985 0.591733 
12 1 191.845 494.046 -175.97 0.354673 0.761493 0.522771 -0.145072 
10 1 -497 -482.262 -153.693 0.0840774 0.218487 0.902359 0.36186 
18 1 155.998 158.769 -156.898 0.922864 0.248499 0.251252 0.153108 
21 1 162.769 -500.045 161.049 0.539519 0.295842 0.650704 0.444951 
24 1 174.477 -158.476 158.326 0.272489 0.696325 0.616693 0.246111 
20 1 -160.369 494.132 161.312 0.253856 0.293424 0.446234 0.806433 
19 1 -490.742 -496.558 171.777 0.604526 0.223895 -0.00381373 0.764464 
23 1 -175.513 -187.223 174.237 0.203769 0.522566 0.735483 0.38009 
22 1 -493.757 -164.86 168.472 0.746074 -0.0650794 0.463329 0.473777 
25 1 -492.428 166.797 176.413 0.398008 0.358032 0.603047 0.591385 
2 1 -165.905 -491.349 480.385 0.532321 0.181179 0.672813 0.480761 
4 1 -483.904 -185.776 497.126 0.273434 -0.0894069 0.678791 0.675636 
5 1 -170.14 -163.413 484.4 0.29545 0.525532 0.414626 0.681624 
9 1 154.454 156.965 -499.502 0.540805 0.674675 0.50221 -0.0113396 
8 1 -159.03 183.749 492.712 0.774392 0.107539 0.19786 0.591273 
3 1 168.483 495.358 497.187 0.104266 0.121635 0.976735 0.142559 
ITEM: TIMESTEP
130000
ITEM: NUMBER OF ATOMS
25
ITEM: BOX BOUNDS pp pp pp
-5.0000000000000000e+02 5.0000000000000000e+02
-5.0000000000000000e+02 5.0000000000000000e+02
-5.0000000000000000e+02 5.0000000000000000e+02
ITEM: ATOMS id type x y z c_q[1] c_q[2] c_q[3] c_q[4] 
1 1 493.57 -482.846 -491.311 0.392995 0.668681 0.592167 0.218535 
6 1 155.995 -160.43 -492.669 0.40695 0.509077 0.507543 0.563589 
3 1 175.218 492.033 -498.643 0.125755 0.163445 0.967303 0.147636 
14 1 -170.582 -181.797 -182.067 0.379225 0.663315 0.0398862 0.643903 
15 1 148.094 -171.589 -168.657 0.504556 0.250869 0.609458 0.557718 
13 1 -493.966 -166.402 -174.667 0.326585 0.715605 0.340985 0.514762 
16 1 -490.724 153.622 -179.817 0.701155 0.0786739 0.537477 0.461855 
17 1 -163.179 157.109 -179.278 0.486511 0.337053 0.294726 0.750226 
11 1 -173.344 494.795 -175.314 0.581449 0.388799 0.387683 0.600379 
12 1 190.859 495.738 -175.042 0.329818 0.730947 0.576368 -0.157281 
10 1 -496.519 -480.138 -152.975 0.123358 0.138593 0.9083 0.374922 
18 1 157.808 157.29 -163.601 0.921437 0.294154 0.184395 0.174429 
24 1 175.737 -163.735 157.009 0.269688 0.689568 0.632463 0.227497 
20 1 -160.544 492.239 162.66 0.221033 0.296807 0.403876 0.836621 
21 1 155.866 498.514 154.211 0.524425 0.343238 0.645307 0.436743 
19 1 -489.951 -489.333 174.116 0.568786 0.234022 -0.000913322 0.788489 
22 1 -489.311 -168.487 175.624 0.708902 -0.114944 0.476245 0.507382 
23 1 -176.663 -188.053 177.081 0.218568 0.568792 0.703965 0.36488 
25 1 -487.067 163.298 181.819 0.413524 0.399659 0.572749 0.584149 
2 1 -166.65 -491.089 477.267 0.495881 0.195246 0.704297 0.468985 
4 1 -484.194 -181.417 497.228 0.219839 -0.0210794 0.687685 0.691604 
5 1 -170.251 -165.811 482.842 0.299506 0.510756 0.429042 0.682164 
9 1 150.484 158.409 497.2 0.551672 0.653204 0.518634 -0.00124673 
7 1 486.472 163.233 498.955 0.600406 0.305637 0.615791 0.408535 
8 1 -162.908 178.347 491.417 0.771927 0.0884306 0.187252 0.601036 
ITEM: TIMESTEP
140000
ITEM: NUMBER OF ATOMS
25
ITEM: BOX BOUNDS pp pp pp
-5.0000000000000000e+02 5.0000000000000000e+02
-5.0000000000000000e+02 5.0000000000000000e+02
-5.0000000000000000e+02 5.0000000000000000e+02
ITEM: ATOMS id type x y z c_q[1] c_q[2] c_q[3] c_q[4] 
1 1 491.798 -483.317 -491.354 0.387836 0.708384 0.551212 0.209622 
6 1 156.189 -148.162 -487.403 0.405027 0.536166 0.510859 0.536192 
14 1 -175.824 -183.008 -183.903 0.392602 0.70404 0.0732715 0.587216 
15 1 147.527 -167.437 -172.615 0.460873 0.304232 0.623667 0.553243 
13 1 -498.069 -164.871 -178.312 0.344179 0.706475 0.302598 0.539323 
16 1 -489.791 155.337 -178.068 0.689472 0.0393377 0.567938 0.447803 
17 1 -163.776 155.056 -183.27 0.455321 0.303898 0.296642 0.782517 
11 1 -177.354 498.43 -170.793 0.588269 0.367643 0.378076 0.613055 
12 1 189.522 492.337 -174.931 0.292013 0.720927 0.591832 -0.211489 
10 1 -492.645 -479.843 -151.669 0.109527 0.131327 0.911295 0.374564 
18 1 153.901 158.884 -156.903 0.923371 0.286492 0.177496 0.183859 
24 1 174.039 -167.91 161.955 0.291131 0.688541 0.622389 0.231918 
20 1 -168.519 489.577 162.928 0.224894 0.329529 0.397768 0.826205 
21 1 154.855 495.899 155.091 0.562252 0.34207 0.651957 0.37658 
19 1 -492.554 -494.8 174.712 0.592185 0.221353 -0.0142976 0.774671 
22 1 -482.912 -168.41 176.721 0.719509 -0.110021 0.495388 0.474123 
23 1 -176.236 -187.53 176.481 0.160095 0.611007 0.694538 0.344467 
25 1 -484.355 156.797 178.274 0.426242 0.341028 0.595043 0.589866 
2 1 -164.539 -488.271 484.642 0.514149 0.208438 0.662056 0.503871 
4 1 -481.607 -185.345 493.216 0.249457 -0.0613794 0.685869 0.680872 
5 1 -167.332 -154.851 481.753 0.312489 0.523622 0.4268 0.667842 
9 1 157.288 159.186 -499.858 0.574103 0.641425 0.506084 -0.053472 
7 1 482.204 166.677 -499.852 0.608181 0.280149 0.591892 0.44866 
8 1 -165.461 180.352 490.469 0.742559 0.0736425 0.205402 0.63324 
3 1 177.127 484.797 496.363 0.137705 0.147477 0.968406 0.146557 
ITEM: TIMESTEP
150000
ITEM: NUMBER OF ATOMS
25
ITEM: BOX BOUNDS pp pp pp
-5.0000000000000000e+02 5.0000000000000000e+02
-5.0000000000000000e+02 5.0000000000000000e+02
-5.0000000000000000e+02 5.0000000000000000e+02
ITEM: ATOMS id type x y z c_q[1] c_q[2] c_q[3] c_q[4] 
1 1 492.863 -483.868 -495.918 0.355539 0.718933 0.567004 0.187707 
6 1 155.776 -140.728 -491.47 0.442563 0.536017 0.487428 0.52843 
9 1 160.345 156.557 -492.724 0.58619 0.641442 0.491022 -0.0618949 
14 1 -180.511 -187.919 -184.56 0.360347 0.732616 0.0584404 0.574464 
15 1 149.753 -171.2 -170.12 0.42655 0.302716 0.642891 0.559562 
13 1 498.783 -162.662 -181.124 0.375581 0.706833 0.289832 0.524713 
16 1 -484.861 154.859 -174.399 0.653811 0.0369688 0.581933 0.482202 
17 1 -160.544 156.167 -185.507 0.441932 0.251634 0.317502 0.800355 
11 1 -176.496 497.536 -169.003 0.582602 0.332655 0.34584 0.655981 
12 1 189.566 492.261 -174.278 0.28244 0.741567 0.567288 -0.220207 