ITEM: TIMESTEP
0
ITEM: NUMBER OF ATOMS
60
ITEM: BOX BOUNDS
-500.000000 500.000000
-500.000000 500.000000
-500.000000 500.000000
ITEM: ATOMS id type x y z c_q[1] c_q[2] c_q[3] c_q[4]
1 1 -500.000000 -500.000000 -500.000000 0.187438 0.924572 0.106849 0.314034
2 1 -250.000000 -500.000000 -500.000000 0.196839 0.382374 0.743909 0.511512
3 1 0.000000 -500.000000 -500.000000 0.084550 0.465226 0.319855 0.821041
4 1 250.000000 -500.000000 -500.000000 0.529787 0.611401 0.586067 0.045160
5 1 -500.000000 -250.000000 -500.000000 0.597970 0.316629 0.695625 0.241422
6 1 -250.000000 -250.000000 -500.000000 0.567424 0.475178 0.444093 0.504993
7 1 0.000000 -250.000000 -500.000000 0.972638 0.104171 0.134978 0.157810
8 1 250.000000 -250.000000 -500.000000 0.415717 0.264695 0.468606 0.733160
9 1 -500.000000 0.000000 -500.000000 0.426912 0.756231 0.229429 0.439571
10 1 -250.000000 0.000000 -500.000000 0.625857 0.002234 0.488385 0.608094
11 1 0.000000 0.000000 -500.000000 0.234796 0.631379 0.153095 0.723044
12 1 250.000000 0.000000 -500.000000 0.647296 0.531794 0.502515 0.213735
13 1 -500.000000 250.000000 -500.000000 0.482034 0.660139 0.495940 0.293093
14 1 -250.000000 250.000000 -500.000000 0.809119 0.525245 0.005398 0.263467
15 1 0.000000 250.000000 -500.000000 0.738366 0.099268 0.068207 0.663559
16 1 250.000000 250.000000 -500.000000 0.704230 0.227714 0.649393 0.174630
17 1 -500.000000 -500.000000 -250.000000 0.523498 0.489953 0.568602 0.403223
18 1 -250.000000 -500.000000 -250.000000 0.186786 0.267571 0.382139 0.864573
19 1 0.000000 -500.000000 -250.000000 0.701090 0.249788 0.156040 0.649408
20 1 250.000000 -500.000000 -250.000000 0.453820 0.452494 0.352359 0.682012
21 1 -500.000000 -250.000000 -250.000000 0.667715 0.392762 0.136246 0.617521
22 1 -250.000000 -250.000000 -250.000000 0.692727 0.260661 0.021853 0.672092
23 1 0.000000 -250.000000 -250.000000 0.545622 0.168952 0.632834 0.522755
24 1 250.000000 -250.000000 -250.000000 0.343715 0.423128 0.796413 0.261819
25 1 -500.000000 0.000000 -250.000000 0.698152 0.433934 0.495592 0.280489
26 1 -250.000000 0.000000 -250.000000 0.570745 0.193561 0.476935 0.639779
27 1 0.000000 0.000000 -250.000000 0.561734 0.502746 0.274278 0.597053
28 1 250.000000 0.000000 -250.000000 0.083079 0.613175 0.542774 0.567900
29 1 -500.000000 250.000000 -250.000000 0.544757 0.132297 0.196062 0.804548
30 1 -250.000000 250.000000 -250.000000 0.306812 0.609005 0.530171 0.503883
31 1 0.000000 250.000000 -250.000000 0.263065 0.537975 0.563229 0.569344
32 1 250.000000 250.000000 -250.000000 0.399396 0.838940 0.240639 0.280635
33 1 -500.000000 -500.000000 0.000000 0.378737 0.749276 0.004939 0.543249
34 1 -250.000000 -500.000000 0.000000 0.174331 0.887986 0.348360 0.244406
35 1 0.000000 -500.000000 0.000000 0.391501 0.102798 0.562714 0.720772
36 1 250.000000 -500.000000 0.000000 0.563763 0.100133 0.628763 0.526120
37 1 -500.000000 -250.000000 0.000000 0.126501 0.414314 0.636073 0.638555
38 1 -250.000000 -250.000000 0.000000 0.004768 0.478825 0.230830 0.847007
39 1 0.000000 -250.000000 0.000000 0.042808 0.691571 0.170440 0.700605
40 1 250.000000 -250.000000 0.000000 0.121853 0.832688 0.489552 0.228304
41 1 -500.000000 0.000000 0.000000 0.556265 0.527912 0.615250 0.182608
42 1 -250.000000 0.000000 0.000000 0.527429 0.370153 0.550511 0.530796
43 1 0.000000 0.000000 0.000000 0.384448 0.741495 0.528783 0.150911
44 1 250.000000 0.000000 0.000000 0.540717 0.298775 0.198764 0.760823
45 1 -500.000000 250.000000 0.000000 0.506171 0.049846 0.702770 0.497415
46 1 -250.000000 250.000000 0.000000 0.485294 0.494686 0.547397 0.469182
47 1 0.000000 250.000000 0.000000 0.660272 0.071584 0.625128 0.410040
48 1 250.000000 250.000000 0.000000 0.682257 0.210879 0.248277 0.654533
49 1 -500.000000 -500.000000 250.000000 0.662849 0.643978 0.014681 0.381716
50 1 -250.000000 -500.000000 250.000000 0.701183 0.079090 0.012216 0.708475
51 1 0.000000 -500.000000 250.000000 0.440557 0.608361 0.497353 0.434103
52 1 250.000000 -500.000000 250.000000 0.573274 0.533864 0.143219 0.604842
53 1 -500.000000 -250.000000 250.000000 0.347276 0.527031 0.251736 0.733667
54 1 -250.000000 -250.000000 250.000000 0.547286 0.487868 0.537794 0.416222
55 1 0.000000 -250.000000 250.000000 0.634198 0.087546 0.678327 0.360555
56 1 250.000000 -250.000000 250.000000 0.263573 0.151719 0.374077 0.876115
57 1 -500.000000 0.000000 250.000000 0.017568 0.343521 0.666026 0.661887
58 1 -250.000000 0.000000 250.000000 0.445166 0.190324 0.518434 0.704862
59 1 0.000000 0.000000 250.000000 0.394776 0.565011 0.411103 0.596581
60 1 250.000000 0.000000 250.000000 0.058031 0.626225 0.495756 0.598916
