LAMMPS data file

35 atoms
35 ellipsoids
0 bonds
0 angles
0 dihedrals

1 atom types
0 bond types
0 angle types
0 dihedral types

-500.000000 500.000000 xlo xhi
-500.000000 500.000000 ylo yhi
-500.000000 500.000000 zlo zhi

Masses

1 203166.000000

Atoms

1 1 -500.000000 -500.000000 -500.000000 1 1.000000 3 0.000000
2 1 -250.000000 -500.000000 -500.000000 1 1.000000 4 0.000000
3 1 0.000000 -500.000000 -500.000000 1 1.000000 5 0.000000
4 1 250.000000 -500.000000 -500.000000 1 1.000000 6 0.000000
5 1 -500.000000 -250.000000 -500.000000 1 1.000000 7 0.000000
6 1 -250.000000 -250.000000 -500.000000 1 1.000000 8 0.000000
7 1 0.000000 -250.000000 -500.000000 1 1.000000 9 0.000000
8 1 250.000000 -250.000000 -500.000000 1 1.000000 10 0.000000
9 1 -500.000000 0.000000 -500.000000 1 1.000000 11 0.000000
10 1 -250.000000 0.000000 -500.000000 1 1.000000 12 0.000000
11 1 0.000000 0.000000 -500.000000 1 1.000000 13 0.000000
12 1 250.000000 0.000000 -500.000000 1 1.000000 14 0.000000
13 1 -500.000000 250.000000 -500.000000 1 1.000000 15 0.000000
14 1 -250.000000 250.000000 -500.000000 1 1.000000 16 0.000000
15 1 0.000000 250.000000 -500.000000 1 1.000000 17 0.000000
16 1 250.000000 250.000000 -500.000000 1 1.000000 18 0.000000
17 1 -500.000000 -500.000000 -250.000000 1 1.000000 19 0.000000
18 1 -250.000000 -500.000000 -250.000000 1 1.000000 20 0.000000
19 1 0.000000 -500.000000 -250.000000 1 1.000000 21 0.000000
20 1 250.000000 -500.000000 -250.000000 1 1.000000 22 0.000000
21 1 -500.000000 -250.000000 -250.000000 1 1.000000 23 0.000000
22 1 -250.000000 -250.000000 -250.000000 1 1.000000 24 0.000000
23 1 0.000000 -250.000000 -250.000000 1 1.000000 25 0.000000
24 1 250.000000 -250.000000 -250.000000 1 1.000000 26 0.000000
25 1 -500.000000 0.000000 -250.000000 1 1.000000 27 0.000000
26 1 -250.000000 0.000000 -250.000000 1 1.000000 28 0.000000
27 1 0.000000 0.000000 -250.000000 1 1.000000 29 0.000000
28 1 250.000000 0.000000 -250.000000 1 1.000000 30 0.000000
29 1 -500.000000 250.000000 -250.000000 1 1.000000 31 0.000000
30 1 -250.000000 250.000000 -250.000000 1 1.000000 32 0.000000
31 1 0.000000 250.000000 -250.000000 1 1.000000 33 0.000000
32 1 250.000000 250.000000 -250.000000 1 1.000000 34 0.000000
33 1 -500.000000 -500.000000 0.000000 1 1.000000 35 0.000000
34 1 -250.000000 -500.000000 0.000000 1 1.000000 36 0.000000
35 1 0.000000 -500.000000 0.000000 1 1.000000 37 0.000000

Ellipsoids

1 55.000000 110.000000 110.000000 0.638527 0.228148 0.563407 0.472021
2 55.000000 110.000000 110.000000 0.298822 0.644692 0.006799 0.703585
3 55.000000 110.000000 110.000000 0.501204 0.531573 0.377058 0.569256
4 55.000000 110.000000 110.000000 0.672126 0.287467 0.672528 0.115395
5 55.000000 110.000000 110.000000 0.535788 0.467500 0.522259 0.470765
6 55.000000 110.000000 110.000000 0.781661 0.188902 0.205024 0.557931
7 55.000000 110.000000 110.000000 0.529235 0.382268 0.535081 0.536163
8 55.000000 110.000000 110.000000 0.189957 0.505919 0.596690 0.593232
9 55.000000 110.000000 110.000000 0.539196 0.543999 0.484093 0.423068
10 55.000000 110.000000 110.000000 0.601242 0.135491 0.755279 0.222943
11 55.000000 110.000000 110.000000 0.595776 0.353273 0.468356 0.548536
12 55.000000 110.000000 110.000000 0.059089 0.648764 0.048567 0.757136
13 55.000000 110.000000 110.000000 0.017968 0.320598 0.819295 0.475025
14 55.000000 110.000000 110.000000 0.396594 0.656908 0.379054 0.517207
15 55.000000 110.000000 110.000000 0.105671 0.393954 0.589342 0.697359
16 55.000000 110.000000 110.000000 0.799831 0.213557 0.058553 0.557885
17 55.000000 110.000000 110.000000 0.345931 0.694640 0.043124 0.629243
18 55.000000 110.000000 110.000000 0.467150 0.557802 0.219609 0.649923
19 55.000000 110.000000 110.000000 0.574226 0.660866 0.424734 0.230481
20 55.000000 110.000000 110.000000 0.155193 0.200880 0.915590 0.311859
21 55.000000 110.000000 110.000000 0.546124 0.377596 0.279317 0.693652
22 55.000000 110.000000 110.000000 0.012877 0.547652 0.813981 0.193251
23 55.000000 110.000000 110.000000 0.473604 0.640467 0.545754 0.260104
24 55.000000 110.000000 110.000000 0.771506 0.057491 0.530205 0.346924
25 55.000000 110.000000 110.000000 0.619352 0.034953 0.701393 0.351040
26 55.000000 110.000000 110.000000 0.579847 0.559590 0.589874 0.051818
27 55.000000 110.000000 110.000000 0.607690 0.308341 0.633786 0.365998
28 55.000000 110.000000 110.000000 0.403791 0.862647 0.032533 0.302879
29 55.000000 110.000000 110.000000 0.266857 0.624213 0.382327 0.626874
30 55.000000 110.000000 110.000000 0.465595 0.233413 0.052547 0.852044
31 55.000000 110.000000 110.000000 0.100749 0.059567 0.657775 0.744065
32 55.000000 110.000000 110.000000 0.340595 0.200387 0.814648 0.424486
33 55.000000 110.000000 110.000000 0.311576 0.258713 0.884823 0.230381
34 55.000000 110.000000 110.000000 0.388492 0.818534 0.284818 0.312976
35 55.000000 110.000000 110.000000 0.446809 0.564340 0.070789 0.690558




