ITEM: TIMESTEP
0
ITEM: NUMBER OF ATOMS
35
ITEM: BOX BOUNDS pp pp pp
-5.0000000000000000e+02 5.0000000000000000e+02
-5.0000000000000000e+02 5.0000000000000000e+02
-5.0000000000000000e+02 5.0000000000000000e+02
ITEM: ATOMS id type x y z c_q[1] c_q[2] c_q[3] c_q[4] 
1 1 -500 -500 -500 0.638527 0.228148 0.563407 0.472021 
2 1 -250 -500 -500 0.298822 0.644692 0.006799 0.703585 
3 1 0 -500 -500 0.501204 0.531573 0.377058 0.569256 
4 1 250 -500 -500 0.672126 0.287467 0.672528 0.115395 
5 1 -500 -250 -500 0.535788 0.4675 0.522259 0.470765 
6 1 -250 -250 -500 0.781661 0.188902 0.205024 0.557931 
7 1 0 -250 -500 0.529235 0.382268 0.535081 0.536163 
8 1 250 -250 -500 0.189957 0.505919 0.59669 0.593232 
9 1 -500 0 -500 0.539196 0.543999 0.484093 0.423068 
10 1 -250 0 -500 0.601242 0.135491 0.755279 0.222943 
11 1 0 0 -500 0.595776 0.353273 0.468356 0.548536 
12 1 250 0 -500 0.059089 0.648764 0.048567 0.757136 
13 1 -500 250 -500 0.017968 0.320598 0.819295 0.475025 
14 1 -250 250 -500 0.396594 0.656908 0.379054 0.517207 
15 1 0 250 -500 0.105671 0.393954 0.589342 0.697359 
16 1 250 250 -500 0.799831 0.213557 0.058553 0.557885 
17 1 -500 -500 -250 0.345931 0.69464 0.043124 0.629243 
18 1 -250 -500 -250 0.46715 0.557802 0.219609 0.649923 
19 1 0 -500 -250 0.574226 0.660866 0.424734 0.230481 
20 1 250 -500 -250 0.155193 0.20088 0.915591 0.311859 
21 1 -500 -250 -250 0.546124 0.377596 0.279317 0.693652 
22 1 -250 -250 -250 0.012877 0.547652 0.813981 0.193251 
23 1 0 -250 -250 0.473604 0.640467 0.545754 0.260104 
24 1 250 -250 -250 0.771506 0.057491 0.530205 0.346924 
25 1 -500 0 -250 0.619352 0.034953 0.701393 0.35104 
26 1 -250 0 -250 0.579847 0.55959 0.589874 0.051818 
27 1 0 0 -250 0.60769 0.308341 0.633786 0.365998 
28 1 250 0 -250 0.403791 0.862647 0.032533 0.302879 
29 1 -500 250 -250 0.266857 0.624213 0.382327 0.626874 
30 1 -250 250 -250 0.465595 0.233413 0.052547 0.852044 
31 1 0 250 -250 0.100749 0.059567 0.657775 0.744065 
32 1 250 250 -250 0.340595 0.200387 0.814648 0.424486 
33 1 -500 -500 0 0.311576 0.258713 0.884823 0.230381 
34 1 -250 -500 0 0.388492 0.818534 0.284818 0.312976 
35 1 0 -500 0 0.446809 0.56434 0.070789 0.690558 
ITEM: TIMESTEP
10000
ITEM: NUMBER OF ATOMS
35
ITEM: BOX BOUNDS pp pp pp
-5.0000000000000000e+02 5.0000000000000000e+02
-5.0000000000000000e+02 5.0000000000000000e+02
-5.0000000000000000e+02 5.0000000000000000e+02
ITEM: ATOMS id type x y z c_q[1] c_q[2] c_q[3] c_q[4] 
6 1 -252.842 -252.302 -496.696 0.766088 0.206648 0.202338 0.573991 
10 1 -250.751 -5.02792 -498.452 0.615439 0.154333 0.74522 0.205092 
9 1 500.127 -4.74104 -497.023 0.540196 0.578415 0.459147 0.403496 
11 1 -4.74573 4.97507 -495.948 0.601034 0.319491 0.45779 0.571937 
14 1 -254.154 254.358 -497.217 0.456168 0.619535 0.359191 0.52827 
13 1 498.668 246.967 -499.226 0.0170981 0.326651 0.805227 0.494587 
1 1 -491.836 495.705 -494.801 0.617561 0.226726 0.55661 0.507345 
2 1 -246.754 493.003 -498.355 0.288754 0.676115 0.015364 0.677683 
17 1 -498.919 -496.984 -252.434 0.344189 0.660769 0.00194605 0.667019 
20 1 242.631 -499.226 -249.8 0.165135 0.261152 0.895824 0.319419 
21 1 -493.109 -246.23 -250.254 0.549842 0.374993 0.248112 0.703914 
22 1 -252.627 -251.05 -250.974 0.0417743 0.554534 0.814599 0.164849 
23 1 -0.212698 -247.341 -247.682 0.498243 0.618301 0.560353 0.235506 
24 1 252.345 -251.597 -242.48 0.771138 0.0360765 0.497577 0.395553 
25 1 -498.518 -1.73467 -249.468 0.629699 0.0457808 0.684782 0.363947 
28 1 249.993 -1.96114 -242.393 0.400269 0.849439 -0.000518111 0.343858 
26 1 -253.416 6.67952 -253.675 0.60118 0.584648 0.541993 0.0548892 
27 1 0.831812 3.41237 -249.964 0.609889 0.297047 0.626437 0.383895 
29 1 -495.65 249.077 -255.178 0.244867 0.663988 0.388591 0.590048 
30 1 -250.989 255.809 -247.182 0.453481 0.201197 0.0454706 0.867068 
31 1 5.83059 246.126 -249.032 0.0292981 -0.0257194 0.6436 0.764369 
32 1 249.954 250.235 -249.494 0.33119 0.14441 0.829211 0.42646 
18 1 -250.986 493.422 -246.779 0.505039 0.610033 0.167095 0.58726 
19 1 1.12168 494.151 -254.177 0.598312 0.683178 0.352307 0.226208 
33 1 -497.366 493.349 4.03664 0.340128 0.256791 0.881923 0.201451 
34 1 -248.226 497.452 0.688395 0.409568 0.812146 0.284124 0.303226 
35 1 -0.977724 492.858 1.69214 0.469451 0.56344 0.0926148 0.673478 
4 1 250.648 -498.134 495.616 0.710598 0.256999 0.647687 0.0974849 
7 1 -3.89905 -244.563 497.412 0.574438 0.423569 0.551989 0.431183 
8 1 245.437 -243.999 499.824 0.166922 0.504209 0.582114 0.615673 
5 1 -499.657 -247.524 495.877 0.519171 0.441627 0.55692 0.474623 
12 1 251.938 2.59596 497.66 0.015147 0.614469 0.0320572 0.788144 
15 1 -1.3971 251.541 499.554 0.104382 0.427838 0.570026 0.693635 
16 1 255.006 249.297 497.423 0.785065 0.215209 0.0326221 0.579909 
3 1 -3.7567 -499.351 496.062 0.506433 0.579387 0.364501 0.524381 
ITEM: TIMESTEP
20000
ITEM: NUMBER OF ATOMS
35
ITEM: BOX BOUNDS pp pp pp
-5.0000000000000000e+02 5.0000000000000000e+02
-5.0000000000000000e+02 5.0000000000000000e+02
-5.0000000000000000e+02 5.0000000000000000e+02
ITEM: ATOMS id type x y z c_q[1] c_q[2] c_q[3] c_q[4] 
6 1 -253.634 -247.845 -498.194 0.773 0.170247 0.198793 0.5779 
7 1 -9.21963 -244.242 -498.874 0.567644 0.400838 0.564264 0.445775 
8 1 250.423 -243.37 -495.748 0.135158 0.529752 0.56973 0.613598 
9 1 -499.99 -4.25396 -493.841 0.543926 0.586385 0.435036 0.413571 
11 1 -5.47141 2.83357 -495.068 0.621955 0.294957 0.417817 0.592959 
14 1 -251.911 253.151 -495.84 0.452908 0.630949 0.356881 0.519051 
13 1 499.083 250.92 -497.003 -0.0292843 0.352852 0.793445 0.495059 
1 1 -490.957 492.538 -493.431 0.600903 0.246356 0.553366 0.521546 
2 1 -245.769 488.749 -499.786 0.296002 0.649516 0.0458996 0.69886 
17 1 498.864 -498.154 -245.998 0.346632 0.674495 -0.000684664 0.651846 
21 1 -495.33 -249.296 -252.025 0.560517 0.386837 0.230812 0.694913 
22 1 -255.221 -251.261 -257.312 0.0194581 0.542801 0.832219 0.111354 
23 1 -0.0469776 -254.019 -242.73 0.480286 0.610506 0.571589 0.264373 
24 1 253.449 -251.566 -239.906 0.754552 0.0509016 0.512767 0.406362 
28 1 251.305 -6.50174 -243.88 0.379864 0.853222 0.0174598 0.356945 
25 1 499.535 -2.56464 -249.328 0.650397 0.0853771 0.661917 0.362713 
26 1 -255.292 5.4495 -251.579 0.571311 0.620214 0.537055 0.0226059 
27 1 -3.50351 1.75779 -248.884 0.644813 0.240874 0.580828 0.434552 
29 1 -496.325 250.11 -255.958 0.218076 0.708077 0.361685 0.565909 
30 1 -247.442 258.799 -248.898 0.454712 0.193956 0.035685 0.86853 
31 1 4.7889 247.048 -251.86 0.0425159 -0.0765798 0.622146 0.777986 
32 1 252.517 246.93 -249.643 0.318568 0.121349 0.839977 0.42217 
18 1 -253.409 485.936 -249.158 0.505799 0.60269 0.170828 0.593085 
19 1 0.482762 493.824 -253.673 0.605899 0.658125 0.38528 0.226532 
20 1 236.655 498 -248.558 0.108122 0.221904 0.916851 0.313772 
33 1 -495.59 487.21 8.74975 0.371805 0.259664 0.863336 0.221329 
34 1 -247.819 494.048 5.57401 0.372842 0.818987 0.308408 0.308438 
35 1 -3.03581 492.581 4.45766 0.477761 0.568737 0.125122 0.657744 
4 1 250.848 -494.701 494.96 0.752792 0.26664 0.59754 0.0717916 
5 1 496.518 -246.367 492.589 0.521706 0.449503 0.539186 0.484818 
10 1 -250.006 -7.07553 499.439 0.600255 0.206895 0.751584 0.178911 
12 1 255.053 -4.77715 -499.936 0.0198599 0.621483 0.00182822 0.783174 
15 1 -0.989687 247.198 495.777 0.105073 0.412322 0.571247 0.701874 
16 1 256.29 251.422 492.733 0.817956 0.187274 0.0492748 0.541708 
3 1 -4.0273 495.869 496.636 0.481071 0.589132 0.397781 0.513093 
ITEM: TIMESTEP
30000
ITEM: NUMBER OF ATOMS
35
ITEM: BOX BOUNDS pp pp pp
-5.0000000000000000e+02 5.0000000000000000e+02
-5.0000000000000000e+02 5.0000000000000000e+02
-5.0000000000000000e+02 5.0000000000000000e+02
ITEM: ATOMS id type x y z c_q[1] c_q[2] c_q[3] c_q[4] 
6 1 -252.504 -250.08 -492.821 0.782352 0.179869 0.151069 0.576845 
7 1 -10.7011 -246.405 -495.409 0.570918 0.41218 0.547251 0.452411 
8 1 248.208 -242.852 -496.103 0.0938831 0.514603 0.566817 0.636465 
10 1 -249.989 -9.12129 -497.949 0.620956 0.210497 0.742273 0.13833 
9 1 -498.227 -3.93567 -491.619 0.528135 0.597527 0.413483 0.439394 
11 1 -9.73527 4.70657 -496.382 0.609548 0.272502 0.439875 0.600586 
14 1 -254.777 250.623 -494.98 0.427589 0.644498 0.353325 0.526261 
13 1 495.654 247.282 -491.374 -0.0368975 0.351511 0.80482 0.476805 
1 1 -490.411 493.559 -491.62 0.577051 0.249694 0.562536 0.53686 
2 1 -244.615 490.33 -499.683 0.249358 0.654888 0.0439248 0.712048 
3 1 -10.4093 497.222 -499.908 0.47544 0.591476 0.402103 0.512275 
17 1 -498.447 -494.913 -249.672 0.38379 0.680039 -0.0111651 0.624602 
20 1 240.567 -498.115 -250.102 0.0548327 0.209307 0.929076 0.300003 
21 1 -491.39 -248.906 -250.966 0.554085 0.355881 0.225538 0.717963 
22 1 -255.123 -249.446 -255.219 -0.0354769 0.572073 0.814536 0.0894692 
23 1 3.30477 -258.218 -248.035 0.479937 0.610448 0.574402 0.25899 
24 1 252.341 -247.24 -243.163 0.732573 0.0136088 0.525528 0.432401 
28 1 249.337 -5.26885 -239.16 0.422667 0.819232 0.0497293 0.384368 
25 1 497.224 -1.55414 -250.567 0.631012 0.133191 0.661863 0.382127 
26 1 -256.947 1.65112 -247.522 0.581798 0.613815 0.529079 0.0694061 
27 1 -10.4578 3.62135 -249.978 0.681765 0.210174 0.587928 0.381268 
29 1 -499.034 241.365 -258.312 0.262145 0.709942 0.335635 0.560903 
30 1 -251.876 256.575 -246.968 0.498691 0.211927 0.0267007 0.840049 
31 1 5.97865 248.627 -252.765 0.0339799 -0.0481348 0.63686 0.768724 
32 1 247.794 250.004 -246.667 0.299361 0.0916746 0.83184 0.45828 
18 1 -252.308 486.072 -247.641 0.521586 0.589772 0.22373 0.574509 
19 1 -6.50899 490.715 -255.346 0.625901 0.664847 0.34112 0.2233 
33 1 -495.632 481.941 9.06681 0.348703 0.238118 0.884978 0.196267 
34 1 -248.293 494.552 4.65169 0.351778 0.837956 0.303255 0.286562 
35 1 1.46358 489.772 4.9013 0.458349 0.599616 0.174168 0.632488 
4 1 250.723 -495.326 495.934 0.742308 0.252122 0.617616 0.0629666 
5 1 497.246 -253.7 496.001 0.451282 0.431417 0.554032 0.550701 
12 1 252.335 -8.25824 497.197 0.0398408 0.626585 0.000450541 0.778334 
15 1 -4.85822 247.528 490.372 0.126509 0.441263 0.564905 0.685686 
16 1 256.121 256.66 489.91 0.822569 0.168968 0.0557063 0.540117 
ITEM: TIMESTEP
40000
ITEM: NUMBER OF ATOMS
35
ITEM: BOX BOUNDS pp pp pp
-5.0000000000000000e+02 5.0000000000000000e+02
-5.0000000000000000e+02 5.0000000000000000e+02
-5.0000000000000000e+02 5.0000000000000000e+02
ITEM: ATOMS id type x y z c_q[1] c_q[2] c_q[3] c_q[4] 
6 1 -250.224 -254.497 -493.168 0.82138 0.18841 0.162212 0.513346 
7 1 -9.00221 -249.765 -494.245 0.591728 0.418541 0.535289 0.433759 
8 1 247.24 -247.648 -494.888 0.128327 0.548631 0.540217 0.625061 
10 1 -243.545 -11.0259 -495.207 0.624952 0.196155 0.741973 0.142947 
9 1 -499.584 -5.24597 -491.044 0.55674 0.58652 0.432338 0.398897 
11 1 -9.00263 4.19398 -491.756 0.609883 0.236883 0.458993 0.601044 
14 1 -257.001 246.695 -497.589 0.433119 0.653978 0.313436 0.535238 
13 1 493.585 243.38 -493.274 0.00850207 0.33818 0.809377 0.480075 
1 1 -489.44 492.465 -490.825 0.563244 0.220114 0.579278 0.546574 
2 1 -250.411 491.054 -496.924 0.223102 0.637374 0.0589767 0.735188 
3 1 -11.777 495.404 -497.746 0.49624 0.56632 0.402703 0.52044 
17 1 -498.647 -494.65 -252.185 0.346481 0.725463 0.0208167 0.594323 
20 1 243.094 499.031 -249.243 -0.00166741 0.191428 0.935227 0.297832 
21 1 -493.028 -248.028 -251.741 0.543792 0.352599 0.257731 0.716616 
22 1 -256.493 -248.443 -254.56 -0.0554013 0.577764 0.801164 0.145794 
23 1 4.08486 -250.696 -246.062 0.482578 0.612536 0.555544 0.2886 
24 1 244.245 -248.277 -244.606 0.736455 0.000955517 0.536761 0.411728 
25 1 -498.388 -3.67019 -246.839 0.627101 0.142192 0.65144 0.402682 
28 1 245.686 -10.7056 -241.681 0.42138 0.819682 0.00629309 0.387969 
26 1 -248.74 1.12837 -246.817 0.591367 0.628854 0.503463 0.0367946 
27 1 -10.1533 9.40542 -248.27 0.67593 0.224155 0.600607 0.363515 
29 1 -497.169 242.419 -254.592 0.271197 0.715543 0.310053 0.564196 
30 1 -251.726 258.922 -248.572 0.434217 0.265831 0.0508615 0.859187 
31 1 4.01996 247.347 -251.699 -0.0270516 -0.0568165 0.61522 0.78584 
32 1 243.082 249.52 -250.697 0.308089 0.0946941 0.827954 0.458919 
18 1 -245.905 480.085 -248.253 0.470094 0.617545 0.260139 0.574437 
19 1 -9.79702 487.408 -252.359 0.601097 0.661237 0.394912 0.213289 
33 1 -493.903 482.406 7.42234 0.333327 0.180086 0.910787 0.1641 
34 1 -249.769 491.961 4.21403 0.322821 0.849045 0.310998 0.279625 
35 1 5.63309 491.002 3.17623 0.500968 0.591595 0.136439 0.61679 
4 1 249.68 -497.614 -500.031 0.771879 0.299694 0.55715 0.06301 
5 1 498.617 -257.923 499.346 0.451068 0.4702 0.56522 0.505941 
12 1 254.519 -9.397 496.896 -0.020152 0.64018 0.0773719 0.764053 
15 1 -7.19559 245.582 490.966 0.137993 0.453684 0.536473 0.698086 
16 1 258.047 258.717 494.553 0.762921 0.161845 0.039136 0.624681 
ITEM: TIMESTEP
50000
ITEM: NUMBER OF ATOMS
35
ITEM: BOX BOUNDS pp pp pp
-5.0000000000000000e+02 5.0000000000000000e+02
-5.0000000000000000e+02 5.0000000000000000e+02
-5.0000000000000000e+02 5.0000000000000000e+02
ITEM: ATOMS id type x y z c_q[1] c_q[2] c_q[3] c_q[4] 
6 1 -252.653 -257.284 -490.422 0.810063 0.157183 0.167965 0.539333 
7 1 -7.35585 -244.466 -494.575 0.571487 0.382798 0.542976 0.48171 
8 1 249.828 -247.918 -493.892 0.138701 0.557828 0.55788 0.598632 
5 1 496.56 -256.089 -499.345 0.460647 0.474806 0.543113 0.5171 
10 1 -241.736 -9.31231 -494.449 0.634781 0.178868 0.740016 0.132044 
9 1 -498.759 -4.92299 -493.249 0.566333 0.61591 0.365873 0.407503 
11 1 -5.68984 1.12684 -490.673 0.609137 0.255339 0.469838 0.585667 
13 1 494.358 238.037 -494.227 -0.0134861 0.311929 0.825009 0.471039 
1 1 -493.31 491.082 -491.831 0.582328 0.194124 0.585584 0.529435 
2 1 -252.925 499.938 499.638 0.231111 0.625644 0.0655236 0.742202 
3 1 -14.1038 491.73 -498.111 0.501055 0.56505 0.409257 0.512026 
4 1 251.679 495.582 -496.198 0.772904 0.279338 0.566393 0.0615578 
17 1 -490.429 -497.831 -247.795 0.355559 0.735346 0.00266703 0.57692 
21 1 -493.243 -250.301 -249.567 0.55376 0.380311 0.224543 0.7059 
22 1 -263.201 -248.182 -252.345 -0.0559612 0.560444 0.818414 0.113881 
23 1 4.52458 -249.29 -251.78 0.489123 0.615781 0.544172 0.292317 
24 1 244.036 -243.606 -243.177 0.701564 0.042219 0.577646 0.415152 
25 1 -496.274 -8.12669 -246.6 0.64327 0.117912 0.622071 0.430498 
28 1 246.787 -18.1284 -243.345 0.389336 0.870159 0.00497258 0.302021 
26 1 -252.17 -0.800184 -247.111 0.640074 0.619634 0.448176 0.0741485 
27 1 -5.17211 7.30074 -249.577 0.607557 0.222243 0.666023 0.371343 
29 1 -496.977 245.575 -256.633 0.244197 0.72025 0.295717 0.578065 
30 1 -250.401 258.304 -246.113 0.46448 0.271812 0.114677 0.835 
31 1 -1.0152 250.535 -250.376 -0.0314191 -0.0552141 0.608319 0.791146 
32 1 245.362 249.409 -249.864 0.322161 0.0914257 0.822113 0.460417 
18 1 -243.667 480.436 -248.324 0.507404 0.632068 0.244029 0.532429 
19 1 -10.2631 486.06 -256.169 0.571288 0.65779 0.447767 0.201115 
20 1 239.401 499.72 -250.231 0.0313082 0.196041 0.92718 0.317687 
35 1 3.62868 494.135 0.53892 0.495525 0.612461 0.173864 0.590862 
33 1 -494.531 482.386 7.02488 0.3756 0.179497 0.895221 0.15901 
34 1 -246.474 489.5 2.9375 0.275721 0.858884 0.323811 0.285381 
12 1 258.313 -6.5529 492.926 -0.0417376 0.668138 0.0783621 0.738721 
14 1 -255.033 244.299 499.094 0.465595 0.630928 0.301451 0.542474 
15 1 -10.5002 248.564 496.627 0.132497 0.459744 0.563054 0.673832 
16 1 257.984 259.812 492.506 0.740651 0.167814 0.023445 0.650173 
ITEM: TIMESTEP
60000
ITEM: NUMBER OF ATOMS
35
ITEM: BOX BOUNDS pp pp pp
-5.0000000000000000e+02 5.0000000000000000e+02
-5.0000000000000000e+02 5.0000000000000000e+02
-5.0000000000000000e+02 5.0000000000000000e+02
ITEM: ATOMS id type x y z c_q[1] c_q[2] c_q[3] c_q[4] 
6 1 -249.811 -257.545 -485.456 0.807145 0.150939 0.157496 0.548571 
7 1 -11.4833 -241.333 -491.63 0.567436 0.362981 0.552467 0.49096 
8 1 252.562 -249.715 -494.469 0.179378 0.540401 0.582048 0.580526 
5 1 493.555 -252.323 -492.723 0.48074 0.464348 0.536214 0.515504 
9 1 -496.717 -10.3229 -490.13 0.54097 0.642035 0.358717 0.408001 
10 1 -241.047 -11.2945 -492.331 0.60246 0.188221 0.768968 0.101506 
11 1 -8.06648 -4.0184 -495.624 0.593618 0.233931 0.468508 0.61106 
14 1 -255.281 243.062 -497.455 0.450838 0.614105 0.294504 0.576964 
13 1 494.402 238.826 -493.264 0.0157309 0.326203 0.832082 0.448312 
1 1 -493.736 488.999 -487.198 0.600921 0.195042 0.574641 0.52023 
3 1 -11.1957 492.533 -495.197 0.49672 0.529245 0.406202 0.55513 
4 1 260.212 498.452 -496.649 0.765032 0.305174 0.558176 0.100172 
20 1 239.536 -497.079 -250.685 0.00617604 0.205739 0.925713 0.317314 
21 1 -493.773 -251.954 -251.869 0.567705 0.428012 0.175176 0.681051 
22 1 -263.487 -248.256 -258.391 -0.0571482 0.532958 0.840119 0.0830116 
23 1 5.01699 -248.685 -253.72 0.480774 0.632357 0.516414 0.319839 
24 1 244.685 -245.805 -241.541 0.69069 0.0240729 0.591572 0.415222 
25 1 -499.975 -11.8949 -243.147 0.641341 0.0892382 0.641758 0.410932 
28 1 249.506 -13.5294 -248.261 0.379509 0.863879 0.0162426 0.33079 
26 1 -248.236 1.96446 -250.5 0.650492 0.621168 0.431475 0.0695661 
27 1 -3.98205 5.44926 -252.469 0.630952 0.213803 0.634757 0.391498 
29 1 -498.012 246.733 -256.082 0.31122 0.707765 0.266929 0.575291 
30 1 -251.975 257.831 -248.434 0.534533 0.240184 0.101638 0.8039 
31 1 -5.51809 246.727 -244.984 -0.0113434 -0.0707768 0.637203 0.767356 
32 1 244.911 247.524 -251.183 0.313791 0.0778752 0.818693 0.474566 
17 1 -484.54 498.111 -252.321 0.350914 0.74203 0.0117637 0.571063 
18 1 -243.028 485.235 -255.499 0.517097 0.642191 0.20845 0.52607 
19 1 -10.8929 481.851 -251.308 0.561782 0.676515 0.438843 0.184783 
33 1 -492.542 480.279 5.85852 0.409727 0.161914 0.884009 0.156319 
34 1 -241.429 492.036 1.42243 0.250018 0.8627 0.310057 0.311616 
35 1 3.5313 494.991 1.02188 0.483252 0.635965 0.20348 0.566226 
12 1 256.583 -2.03648 490.831 -0.0414325 0.710942 0.0745092 0.698064 
15 1 -12.6854 243.888 497.687 0.163156 0.390116 0.572387 0.70254 
16 1 256.144 260.746 496.24 0.772603 0.153998 0.0202405 0.615597 
2 1 -249.314 -499.322 499.071 0.248866 0.633269 0.0603142 0.730341 
ITEM: TIMESTEP
70000
ITEM: NUMBER OF ATOMS
35
ITEM: BOX BOUNDS pp pp pp
-5.0000000000000000e+02 5.0000000000000000e+02
-5.0000000000000000e+02 5.0000000000000000e+02
-5.0000000000000000e+02 5.0000000000000000e+02
ITEM: ATOMS id type x y z c_q[1] c_q[2] c_q[3] c_q[4] 
2 1 -249.142 -494.728 -495.303 0.271669 0.624772 -0.025519 0.731577 
6 1 -254.226 -258.073 -487.889 0.807472 0.150377 0.178199 0.541867 
7 1 -13.6015 -233.578 -490.262 0.522038 0.328085 0.574761 0.538039 
8 1 255.088 -252.221 -496.285 0.195511 0.561161 0.574305 0.563069 
5 1 491.028 -251.436 -492.507 0.444571 0.459955 0.576873 0.507953 
9 1 -495.871 -12.7009 -484.251 0.56408 0.631537 0.328292 0.418569 
10 1 -247.497 -8.96567 -496.506 0.600335 0.234179 0.747827 0.159725 
11 1 -7.49771 -3.7284 -492.845 0.644713 0.227069 0.397274 0.612339 
14 1 -258.666 238.882 -495.762 0.503686 0.590515 0.29231 0.558702 
13 1 497.058 236.142 -491.964 0.00325771 0.308515 0.837469 0.451058 
1 1 -494.429 488.006 -486.788 0.607813 0.205116 0.596685 0.482138 
3 1 -13.2479 490.688 -492.544 0.470717 0.530302 0.43375 0.555938 
4 1 257.583 490.956 -491.336 0.713444 0.271452 0.63363 0.125795 
17 1 -484.733 499.28 -254.305 0.357866 0.752601 0.029968 0.551929 
21 1 -493.476 -241.793 -251.033 0.554205 0.459594 0.239737 0.651273 
22 1 -264.8 -247.033 -250.55 -0.0226658 0.520218 0.848261 0.0965023 
23 1 10.3705 -243.472 -254.837 0.490022 0.622091 0.501563 0.348304 
24 1 242.895 -243.371 -241.17 0.652156 -0.0143403 0.631812 0.418688 
25 1 -494.296 -16.3412 -245.817 0.584795 0.058404 0.685832 0.42923 
28 1 252.224 -13.393 -249.32 0.373343 0.855597 0.0195067 0.358034 
26 1 -252.787 8.78137 -251.295 0.632599 0.645543 0.425539 0.0448359 
27 1 -4.62806 1.04391 -251.659 0.62119 0.244283 0.634428 0.389807 
30 1 -248.055 253.499 -255.085 0.586424 0.283805 0.0815679 0.75426 
31 1 -2.49292 252.882 -244.131 0.029223 -0.0984401 0.631766 0.768328 
32 1 243.04 242.597 -255.443 0.282212 0.0824351 0.829921 0.474123 
29 1 500.017 246.759 -254.533 0.341216 0.67746 0.300649 0.578126 
18 1 -239.55 484.503 -260.693 0.517147 0.609308 0.205237 0.564961 
19 1 -3.91919 477.185 -255.137 0.563344 0.664882 0.461294 0.166682 
20 1 237.608 -499.606 -243.658 0.0372305 0.200573 0.926119 0.317315 
33 1 -492.372 482.414 5.15678 0.420097 0.131399 0.878337 0.186486 
34 1 -237.159 489.973 4.78456 0.259136 0.855289 0.333307 0.300393 
35 1 5.77627 495.869 0.699505 0.498235 0.645822 0.164624 0.554594 
12 1 255.665 -5.12788 487.914 -0.0105923 0.72158 0.0773188 0.687918 
15 1 -12.2959 245.855 498.265 0.169301 0.388954 0.574323 0.700146 
16 1 258.295 269.31 496.15 0.773442 0.15052 0.0635021 0.612453 
ITEM: TIMESTEP
80000
ITEM: NUMBER OF ATOMS
35
ITEM: BOX BOUNDS pp pp pp
-5.0000000000000000e+02 5.0000000000000000e+02
-5.0000000000000000e+02 5.0000000000000000e+02
-5.0000000000000000e+02 5.0000000000000000e+02
ITEM: ATOMS id type x y z c_q[1] c_q[2] c_q[3] c_q[4] 
2 1 -255.505 -494.961 -495.259 0.264749 0.57504 -0.00176928 0.774102 
6 1 -257.28 -259.545 -486.732 0.82037 0.133482 0.183493 0.524886 
7 1 -11.6012 -229.607 -492.48 0.540922 0.295577 0.581 0.531485 
8 1 258.315 -256.504 -492.647 0.147826 0.603331 0.588745 0.517222 
5 1 495.28 -254.481 -492.578 0.467108 0.436699 0.576932 0.508186 
9 1 -495.972 -14.8462 -481.276 0.51718 0.684333 0.336205 0.388818 
10 1 -249.361 -11.5899 -497.54 0.607003 0.24301 0.726749 0.210545 
11 1 -10.1963 -1.76419 -492.423 0.620875 0.227903 0.446141 0.602936 
14 1 -259.131 240.226 -493.833 0.522456 0.610142 0.237911 0.546044 
13 1 497.912 242.676 -493.263 -0.0015706 0.29926 0.861954 0.409239 
1 1 -497.085 489.754 -480.607 0.565204 0.180738 0.638299 0.49036 
3 1 -11 491.532 -490.753 0.555397 0.475048 0.378413 0.568038 
4 1 258.813 494.679 -494.408 0.676458 0.266667 0.668199 0.15749 
20 1 237.974 -499.733 -241.7 0.126529 0.156109 0.925882 0.319944 
21 1 -488.057 -242.674 -249.364 0.554317 0.500476 0.21001 0.630993 
22 1 -260.789 -246.607 -251.84 0.032378 0.508135 0.855732 0.0920518 
23 1 10.1471 -241.946 -247.666 0.495907 0.635125 0.494721 0.325491 
24 1 245.645 -251.132 -240.986 0.63534 0.0240976 0.624732 0.453291 
25 1 -490.077 -12.8579 -246.637 0.62677 0.0615728 0.644008 0.434306 
28 1 247.191 -9.12991 -249.532 0.37174 0.864816 0.005727 0.337446 
26 1 -248.156 12.5731 -257.641 0.621205 0.638915 0.451998 0.03988 
27 1 -5.35868 4.74503 -251.613 0.594473 0.205114 0.672807 0.389694 
29 1 -497.627 247.541 -257.078 0.346364 0.705091 0.29091 0.546123 
30 1 -244.237 253.416 -254.684 0.562225 0.282781 0.0633871 0.774545 
31 1 -0.462333 251.222 -247.908 0.00883553 -0.132719 0.645159 0.752381 
32 1 244.129 247.414 -250.955 0.270955 0.0335204 0.823509 0.497286 
17 1 -487.667 494.808 -253.22 0.359776 0.746275 0.040091 0.558594 
18 1 -242.477 486.866 -265.738 0.532068 0.602448 0.200286 0.560219 
19 1 -2.84876 481.333 -252.958 0.600328 0.626146 0.464794 0.177525 
33 1 -493.009 484.286 5.2354 0.411314 0.133226 0.878213 0.204484 
34 1 -237.683 487.808 6.60565 0.258634 0.854338 0.376177 0.248407 
35 1 4.15673 494.82 0.0272245 0.49955 0.635444 0.143679 0.570978 
12 1 258.914 -3.85001 490.567 -0.00348733 0.708016 0.0996533 0.699121 
15 1 -13.0968 241.562 -499.898 0.173938 0.421908 0.553501 0.696689 
16 1 259.873 272.596 493.303 0.777569 0.133178 0.0699979 0.610533 
ITEM: TIMESTEP
90000
ITEM: NUMBER OF ATOMS
35
ITEM: BOX BOUNDS pp pp pp
-5.0000000000000000e+02 5.0000000000000000e+02
-5.0000000000000000e+02 5.0000000000000000e+02
-5.0000000000000000e+02 5.0000000000000000e+02
ITEM: ATOMS id type x y z c_q[1] c_q[2] c_q[3] c_q[4] 
2 1 -250.606 -493.908 -500.237 0.213741 0.57486 0.00502106 0.789827 
6 1 -259.348 -261.451 -485.03 0.814578 0.161447 0.152137 0.535959 
7 1 -5.48931 -234.18 -495.501 0.506603 0.273167 0.613131 0.541113 
8 1 260.108 -258.084 -496.609 0.0998641 0.589017 0.580584 0.55318 
5 1 493.744 -251.729 -492.233 0.414766 0.432462 0.626021 0.499042 
9 1 -492.407 -15.9818 -488.321 0.538729 0.688304 0.32755 0.358774 
11 1 -6.38512 -0.988669 -487.827 0.63628 0.166228 0.414517 0.62904 
13 1 -498.108 248.661 -495.07 0.0652352 0.343609 0.872586 0.340985 
14 1 -259.719 239.731 -497.513 0.502868 0.596933 0.2748 0.561498 
15 1 -17.612 239.452 -497.324 0.16818 0.420965 0.548044 0.702959 
1 1 -499.767 484.095 -482.193 0.540614 0.22071 0.632563 0.508809 
3 1 -11.2545 498.432 -494.645 0.597401 0.453771 0.393987 0.531016 
4 1 259.226 491.711 -497.835 0.713187 0.263521 0.630728 0.155253 
21 1 -487.886 -241.007 -256.573 0.559762 0.477345 0.253513 0.628124 
22 1 -264.439 -248.119 -253.64 0.0568083 0.482049 0.864235 0.132289 
23 1 3.98932 -239.409 -245.742 0.470156 0.641686 0.512793 0.322856 
24 1 243.194 -254.972 -242.859 0.646772 0.0420885 0.641421 0.410479 
25 1 -493.569 -15.398 -240.907 0.631406 0.088275 0.652182 0.410113 
28 1 243.543 -13.6089 -244.134 0.386117 0.8561 0.0655194 0.337215 
26 1 -245.917 19.2232 -259.434 0.596533 0.649437 0.464242 0.0828221 
27 1 -8.41978 10.4249 -252.928 0.636304 0.183282 0.651535 0.370172 
29 1 -497.922 248.744 -261.54 0.349222 0.694125 0.300257 0.553245 
30 1 -250.366 251.974 -251.758 0.579997 0.27307 0.0401859 0.766434 
31 1 6.07626 250.286 -245.93 -0.0015086 -0.17829 0.630695 0.755271 
32 1 239.708 242.361 -250.103 0.297757 0.021956 0.829237 0.472467 
17 1 -489.568 497.042 -252.586 0.389855 0.715164 0.0454935 0.578346 
18 1 -239.477 483.653 -268.074 0.502171 0.609424 0.267232 0.552281 
19 1 -6.33468 479.849 -257.102 0.611897 0.627085 0.453855 0.162365 
20 1 238.668 498.687 -243.575 0.116669 0.166734 0.910576 0.359777 
33 1 -497.338 480.683 2.8683 0.43098 0.106541 0.86593 0.230372 
34 1 -236.451 489.113 11.7033 0.259773 0.846767 0.383708 0.261289 
35 1 2.5481 492.175 6.47832 0.534684 0.57736 0.112679 0.606689 
10 1 -250.121 -17.0275 496.762 0.619937 0.196623 0.72802 0.216804 
12 1 259.033 -2.34408 493.692 0.0345011 0.711759 0.122605 0.69078 
16 1 262.566 266.457 495.954 0.779624 0.071703 0.0469794 0.620353 
ITEM: TIMESTEP
100000
ITEM: NUMBER OF ATOMS
35
ITEM: BOX BOUNDS pp pp pp
-5.0000000000000000e+02 5.0000000000000000e+02
-5.0000000000000000e+02 5.0000000000000000e+02
-5.0000000000000000e+02 5.0000000000000000e+02
ITEM: ATOMS id type x y z c_q[1] c_q[2] c_q[3] c_q[4] 
6 1 -258.158 -266.265 -488.642 0.855773 0.153137 0.143808 0.472781 
7 1 -8.38897 -234.792 -492.772 0.546008 0.286525 0.602842 0.50632 
8 1 259.799 -260.683 -494.838 0.0532341 0.612397 0.58512 0.528933 
5 1 493.227 -252.443 -491.243 0.393323 0.462447 0.614007 0.504415 
9 1 -487.183 -16.7016 -484.822 0.531513 0.695425 0.319808 0.362769 
11 1 -3.69565 -5.74729 -483.893 0.641432 0.197635 0.422288 0.609244 
13 1 -499.89 243.371 -490.219 0.0246602 0.366089 0.86123 0.351645 
14 1 -259.812 241.071 -498.74 0.514514 0.58233 0.277946 0.564724 
15 1 -16.9762 238.445 -493.374 0.203081 0.457899 0.528062 0.685739 
3 1 -6.17118 491.403 -494.453 0.612927 0.412799 0.38223 0.554813 
4 1 258.808 491.966 -497.391 0.700035 0.258095 0.643079 0.172593 
1 1 498.681 488.129 -478.08 0.581778 0.190461 0.625392 0.483885 
21 1 -485.108 -237.485 -254.405 0.568778 0.472512 0.267506 0.617791 
22 1 -266.967 -249.775 -253.595 0.0628432 0.503437 0.849185 0.146586 
23 1 2.89879 -235.57 -249.449 0.431706 0.644562 0.515093 0.364483 
24 1 244.196 -252.51 -238.706 0.631968 0.0622014 0.649791 0.417756 
25 1 -493.195 -14.1293 -241.744 0.59599 0.116766 0.678649 0.413034 
28 1 240.439 -15.7848 -245.031 0.400685 0.859908 0.0928993 0.302289 
26 1 -243.837 21.2953 -258.108 0.598671 0.658395 0.447409 0.0890728 
27 1 -3.9625 9.98933 -254.117 0.661054 0.15434 0.647181 0.346907 
29 1 -494.276 251.058 -265.809 0.370326 0.682234 0.28172 0.563959 
30 1 -246.982 257.16 -250.907 0.583949 0.285531 0.0696937 0.756716 
31 1 4.28064 250.495 -246.785 0.0350743 -0.179712 0.636324 0.749376 
32 1 232.147 242.141 -254.581 0.288892 0.00749623 0.829466 0.477986 
17 1 -490.734 496.109 -250.113 0.376175 0.761825 0.052876 0.524709 
18 1 -239.384 483.605 -267.827 0.5399 0.61053 0.273376 0.510908 
19 1 -5.37377 483.099 -255.867 0.595594 0.607372 0.489471 0.191794 
20 1 241.759 496.271 -240.53 0.15583 0.172995 0.910289 0.342293 
34 1 -235.491 489.19 8.10201 0.308866 0.819534 0.349794 0.332581 
35 1 -1.93377 490.263 5.07648 0.545245 0.549902 0.090214 0.62624 
33 1 495.841 481.698 2.69486 0.438113 0.0835173 0.8732 0.196479 
2 1 -246.252 -490.297 495.255 0.181727 0.557091 0.0212489 0.810045 
10 1 -254.464 -16.4819 497.114 0.622988 0.18146 0.714883 0.260577 
12 1 254.866 -3.20585 491.332 0.063974 0.730046 0.168693 0.659153 
16 1 260.994 265.251 494.923 0.759109 0.107142 0.0929224 0.635327 
ITEM: TIMESTEP
110000
ITEM: NUMBER OF ATOMS
35
ITEM: BOX BOUNDS pp pp pp
-5.0000000000000000e+02 5.0000000000000000e+02
-5.0000000000000000e+02 5.0000000000000000e+02
-5.0000000000000000e+02 5.0000000000000000e+02
ITEM: ATOMS id type x y z c_q[1] c_q[2] c_q[3] c_q[4] 
6 1 -257.992 -267.354 -491.828 0.866169 0.138325 0.119696 0.46507 
7 1 -6.83664 -242.784 -494.692 0.548 0.234336 0.610753 0.52131 
8 1 257.59 -258.548 -496.107 0.0508466 0.552948 0.623607 0.550252 
5 1 493.979 -252.391 -489.566 0.431664 0.471858 0.617855 0.457462 
9 1 -480.748 -18.1586 -484.491 0.529257 0.670586 0.349345 0.384914 
11 1 -5.49305 -1.19342 -488.85 0.657561 0.26341 0.450844 0.54311 
13 1 -499.029 242.877 -485.723 0.0376276 0.397674 0.851439 0.339841 
14 1 -266.398 236.026 -499.753 0.51332 0.533223 0.280644 0.611077 
15 1 -17.8718 239.012 -493.638 0.180269 0.411976 0.521854 0.724878 
3 1 -5.91214 498.293 -496.818 0.619495 0.434405 0.340638 0.558108 
1 1 494.929 488.895 -480.085 0.564498 0.167387 0.653299 0.475946 
21 1 -488.455 -233.91 -253.069 0.538529 0.507507 0.218245 0.636233 
22 1 -261.711 -252.54 -258.862 0.092146 0.508407 0.847003 0.12497 
23 1 -0.56355 -232.713 -245.161 0.400704 0.63414 0.531275 0.393764 
24 1 245.687 -250.001 -240.363 0.633035 0.0434265 0.641255 0.431477 
25 1 -499.142 -14.8665 -243.251 0.587706 0.133997 0.688651 0.402996 
28 1 236.935 -13.6149 -242.847 0.422947 0.869705 0.0723774 0.243908 
26 1 -249.774 24.8905 -259.392 0.62556 0.648945 0.426358 0.0759154 
27 1 -3.57385 10.7653 -251.473 0.654446 0.121621 0.631709 0.397306 