LAMMPS data file

5 atoms
5 ellipsoids
0 bonds
0 angles
0 dihedrals

1 atom types
0 bond types
0 angle types
0 dihedral types

-500.000000 500.000000 xlo xhi
-500.000000 500.000000 ylo yhi
-500.000000 500.000000 zlo zhi

Masses

1 203166.000000

Atoms

1 1 -500.000000 -500.000000 -500.000000 1 1.000000 3 0.000000
2 1 0.000000 -500.000000 -500.000000 1 1.000000 4 0.000000
3 1 -500.000000 0.000000 -500.000000 1 1.000000 5 0.000000
4 1 0.000000 0.000000 -500.000000 1 1.000000 6 0.000000
5 1 -500.000000 -500.000000 0.000000 1 1.000000 7 0.000000

Ellipsoids

1 55.000000 110.000000 110.000000 0.615171 0.512370 0.514181 0.307670
2 55.000000 110.000000 110.000000 0.017327 0.833612 0.386886 0.393840
3 55.000000 110.000000 110.000000 0.812708 0.029258 0.405692 0.417209
4 55.000000 110.000000 110.000000 0.240271 0.611802 0.569940 0.493088
5 55.000000 110.000000 110.000000 0.566813 0.506732 0.125399 0.637354




