ITEM: TIMESTEP
0
ITEM: NUMBER OF ATOMS
50
ITEM: BOX BOUNDS
-500.000000 500.000000
-500.000000 500.000000
-500.000000 500.000000
ITEM: ATOMS id type x y z c_q[1] c_q[2] c_q[3] c_q[4]
1 1 -500.000000 -500.000000 -500.000000 0.555304 0.518303 0.430130 0.487839
2 1 -250.000000 -500.000000 -500.000000 0.691998 0.503982 0.202747 0.475431
3 1 0.000000 -500.000000 -500.000000 0.925759 0.007888 0.228475 0.301175
4 1 250.000000 -500.000000 -500.000000 0.636526 0.307601 0.706543 0.031827
5 1 -500.000000 -250.000000 -500.000000 0.571593 0.391270 0.255953 0.674297
6 1 -250.000000 -250.000000 -500.000000 0.611474 0.733691 0.190330 0.227095
7 1 0.000000 -250.000000 -500.000000 0.688335 0.015033 0.690447 0.221928
8 1 250.000000 -250.000000 -500.000000 0.383703 0.362000 0.259158 0.809052
9 1 -500.000000 0.000000 -500.000000 0.514693 0.303820 0.681396 0.422474
10 1 -250.000000 0.000000 -500.000000 0.474170 0.576745 0.274828 0.605803
11 1 0.000000 0.000000 -500.000000 0.150468 0.800718 0.579828 0.002995
12 1 250.000000 0.000000 -500.000000 0.510975 0.364394 0.329931 0.705172
13 1 -500.000000 250.000000 -500.000000 0.111868 0.446194 0.197471 0.865680
14 1 -250.000000 250.000000 -500.000000 0.335004 0.898274 0.226990 0.171324
15 1 0.000000 250.000000 -500.000000 0.497026 0.307926 0.746072 0.318627
16 1 250.000000 250.000000 -500.000000 0.639691 0.506921 0.530879 0.228022
17 1 -500.000000 -500.000000 -250.000000 0.308601 0.275219 0.666318 0.620516
18 1 -250.000000 -500.000000 -250.000000 0.780910 0.056118 0.231867 0.577293
19 1 0.000000 -500.000000 -250.000000 0.238090 0.533598 0.296449 0.755450
20 1 250.000000 -500.000000 -250.000000 0.007229 0.011690 0.682171 0.731064
21 1 -500.000000 -250.000000 -250.000000 0.113362 0.761387 0.464150 0.438183
22 1 -250.000000 -250.000000 -250.000000 0.191376 0.445312 0.815683 0.315805
23 1 0.000000 -250.000000 -250.000000 0.052073 0.696997 0.366053 0.614401
24 1 250.000000 -250.000000 -250.000000 0.498310 0.255723 0.742722 0.366955
25 1 -500.000000 0.000000 -250.000000 0.606446 0.643792 0.464814 0.041279
26 1 -250.000000 0.000000 -250.000000 0.151271 0.478920 0.284176 0.816699
27 1 0.000000 0.000000 -250.000000 0.892606 0.426440 0.128075 0.070716
28 1 250.000000 0.000000 -250.000000 0.088997 0.275706 0.677216 0.676346
29 1 -500.000000 250.000000 -250.000000 0.553322 0.524942 0.424645 0.487799
30 1 -250.000000 250.000000 -250.000000 0.242895 0.646364 0.418885 0.589704
31 1 0.000000 250.000000 -250.000000 0.152245 0.706554 0.646834 0.243329
32 1 250.000000 250.000000 -250.000000 0.580206 0.290171 0.492053 0.580557
33 1 -500.000000 -500.000000 0.000000 0.545674 0.712635 0.431639 0.089881
34 1 -250.000000 -500.000000 0.000000 0.524165 0.112461 0.824222 0.182376
35 1 0.000000 -500.000000 0.000000 0.532719 0.626714 0.344704 0.452348
36 1 250.000000 -500.000000 0.000000 0.700919 0.646996 0.147106 0.261666
37 1 -500.000000 -250.000000 0.000000 0.284410 0.521413 0.640331 0.487048
38 1 -250.000000 -250.000000 0.000000 0.221798 0.780887 0.404179 0.421497
39 1 0.000000 -250.000000 0.000000 0.267566 0.550388 0.757859 0.226123
40 1 250.000000 -250.000000 0.000000 0.548451 0.478323 0.360765 0.583316
41 1 -500.000000 0.000000 0.000000 0.726323 0.003892 0.468963 0.502506
42 1 -250.000000 0.000000 0.000000 0.090988 0.504524 0.481658 0.710762
43 1 0.000000 0.000000 0.000000 0.630107 0.673906 0.185787 0.338082
44 1 250.000000 0.000000 0.000000 0.379292 0.255613 0.351446 0.816875
45 1 -500.000000 250.000000 0.000000 0.742360 0.555369 0.343786 0.149262
46 1 -250.000000 250.000000 0.000000 0.534334 0.483493 0.662305 0.205122
47 1 0.000000 250.000000 0.000000 0.855478 0.183463 0.249906 0.414784
48 1 250.000000 250.000000 0.000000 0.194063 0.602947 0.749603 0.192069
49 1 -500.000000 -500.000000 250.000000 0.339876 0.589103 0.111600 0.724560
50 1 -250.000000 -500.000000 250.000000 0.651679 0.521442 0.259149 0.486060
