ITEM: TIMESTEP
0
ITEM: NUMBER OF ATOMS
40
ITEM: BOX BOUNDS
-500.000000 500.000000
-500.000000 500.000000
-500.000000 500.000000
ITEM: ATOMS id type x y z c_q[1] c_q[2] c_q[3] c_q[4]
1 1 -500.000000 -500.000000 -500.000000 0.535944 0.565408 0.608639 0.150455
2 1 -250.000000 -500.000000 -500.000000 0.702274 0.041185 0.583520 0.405734
3 1 0.000000 -500.000000 -500.000000 0.369210 0.419884 0.618967 0.551599
4 1 250.000000 -500.000000 -500.000000 0.670017 0.131942 0.397482 0.612925
5 1 -500.000000 -250.000000 -500.000000 0.114214 0.490829 0.647917 0.571180
6 1 -250.000000 -250.000000 -500.000000 0.341379 0.605743 0.267848 0.666929
7 1 0.000000 -250.000000 -500.000000 0.685562 0.503798 0.354210 0.388237
8 1 250.000000 -250.000000 -500.000000 0.097831 0.733148 0.552292 0.384573
9 1 -500.000000 0.000000 -500.000000 0.688434 0.302100 0.187011 0.632314
10 1 -250.000000 0.000000 -500.000000 0.450264 0.310840 0.538723 0.640639
11 1 0.000000 0.000000 -500.000000 0.869341 0.203107 0.324661 0.312393
12 1 250.000000 0.000000 -500.000000 0.538198 0.265573 0.563508 0.567691
13 1 -500.000000 250.000000 -500.000000 0.588464 0.191079 0.414520 0.667362
14 1 -250.000000 250.000000 -500.000000 0.562091 0.557838 0.073747 0.606162
15 1 0.000000 250.000000 -500.000000 0.789609 0.102938 0.159908 0.583396
16 1 250.000000 250.000000 -500.000000 0.533566 0.592094 0.233277 0.557058
17 1 -500.000000 -500.000000 -250.000000 0.633825 0.350340 0.533468 0.436967
18 1 -250.000000 -500.000000 -250.000000 0.638482 0.640768 0.106399 0.412839
19 1 0.000000 -500.000000 -250.000000 0.607304 0.392498 0.257674 0.640883
20 1 250.000000 -500.000000 -250.000000 0.267690 0.659270 0.498579 0.495100
21 1 -500.000000 -250.000000 -250.000000 0.396678 0.560180 0.571519 0.449679
22 1 -250.000000 -250.000000 -250.000000 0.438686 0.035510 0.524287 0.728983
23 1 0.000000 -250.000000 -250.000000 0.634780 0.539410 0.146153 0.533601
24 1 250.000000 -250.000000 -250.000000 0.610822 0.180126 0.658013 0.401833
25 1 -500.000000 0.000000 -250.000000 0.833693 0.496787 0.235045 0.053966
26 1 -250.000000 0.000000 -250.000000 0.350255 0.009188 0.595087 0.723262
27 1 0.000000 0.000000 -250.000000 0.502704 0.512149 0.301907 0.627570
28 1 250.000000 0.000000 -250.000000 0.153642 0.560319 0.539309 0.609576
29 1 -500.000000 250.000000 -250.000000 0.486858 0.052456 0.856474 0.163307
30 1 -250.000000 250.000000 -250.000000 0.426004 0.826244 0.357199 0.090829
31 1 0.000000 250.000000 -250.000000 0.276639 0.345540 0.093657 0.891797
32 1 250.000000 250.000000 -250.000000 0.701309 0.665183 0.250610 0.053774
33 1 -500.000000 -500.000000 0.000000 0.570161 0.363290 0.708087 0.203836
34 1 -250.000000 -500.000000 0.000000 0.600710 0.031851 0.337651 0.723965
35 1 0.000000 -500.000000 0.000000 0.597488 0.109911 0.450569 0.654152
36 1 250.000000 -500.000000 0.000000 0.699339 0.520318 0.027362 0.489332
37 1 -500.000000 -250.000000 0.000000 0.736756 0.185555 0.372578 0.532866
38 1 -250.000000 -250.000000 0.000000 0.027255 0.686945 0.629282 0.362446
39 1 0.000000 -250.000000 0.000000 0.511758 0.415974 0.584568 0.472599
40 1 250.000000 -250.000000 0.000000 0.142214 0.685496 0.355542 0.619242
