ITEM: TIMESTEP
0
ITEM: NUMBER OF ATOMS
40
ITEM: BOX BOUNDS pp pp pp
-5.0000000000000000e+02 5.0000000000000000e+02
-5.0000000000000000e+02 5.0000000000000000e+02
-5.0000000000000000e+02 5.0000000000000000e+02
ITEM: ATOMS id type x y z c_q[1] c_q[2] c_q[3] c_q[4] 
1 1 -500 -500 -500 0.535944 0.565408 0.608639 0.150455 
2 1 -250 -500 -500 0.702274 0.041185 0.58352 0.405734 
3 1 0 -500 -500 0.36921 0.419884 0.618967 0.551599 
4 1 250 -500 -500 0.670017 0.131942 0.397482 0.612925 
5 1 -500 -250 -500 0.114214 0.490829 0.647917 0.57118 
6 1 -250 -250 -500 0.341379 0.605743 0.267848 0.666929 
7 1 0 -250 -500 0.685562 0.503798 0.35421 0.388237 
8 1 250 -250 -500 0.097831 0.733148 0.552292 0.384573 
9 1 -500 0 -500 0.688434 0.3021 0.187011 0.632314 
10 1 -250 0 -500 0.450264 0.31084 0.538723 0.640639 
11 1 0 0 -500 0.869341 0.203107 0.324661 0.312393 
12 1 250 0 -500 0.538198 0.265573 0.563508 0.567691 
13 1 -500 250 -500 0.588464 0.191079 0.41452 0.667362 
14 1 -250 250 -500 0.562091 0.557838 0.073747 0.606162 
15 1 0 250 -500 0.789609 0.102938 0.159908 0.583396 
16 1 250 250 -500 0.533566 0.592094 0.233277 0.557058 
17 1 -500 -500 -250 0.633825 0.35034 0.533468 0.436967 
18 1 -250 -500 -250 0.638482 0.640768 0.106399 0.412839 
19 1 0 -500 -250 0.607304 0.392498 0.257674 0.640883 
20 1 250 -500 -250 0.26769 0.65927 0.498579 0.4951 
21 1 -500 -250 -250 0.396678 0.56018 0.571519 0.449679 
22 1 -250 -250 -250 0.438686 0.03551 0.524287 0.728983 
23 1 0 -250 -250 0.63478 0.53941 0.146153 0.533601 
24 1 250 -250 -250 0.610822 0.180126 0.658013 0.401833 
25 1 -500 0 -250 0.833693 0.496787 0.235045 0.053966 
26 1 -250 0 -250 0.350255 0.009188 0.595087 0.723262 
27 1 0 0 -250 0.502704 0.512149 0.301907 0.62757 
28 1 250 0 -250 0.153642 0.560319 0.539309 0.609576 
29 1 -500 250 -250 0.486858 0.052456 0.856474 0.163307 
30 1 -250 250 -250 0.426004 0.826244 0.357199 0.090829 
31 1 0 250 -250 0.276639 0.34554 0.093657 0.891797 
32 1 250 250 -250 0.701309 0.665183 0.25061 0.053774 
33 1 -500 -500 0 0.570161 0.36329 0.708087 0.203836 
34 1 -250 -500 0 0.60071 0.031851 0.337651 0.723965 
35 1 0 -500 0 0.597488 0.109911 0.450569 0.654152 
36 1 250 -500 0 0.699339 0.520318 0.027362 0.489332 
37 1 -500 -250 0 0.736756 0.185555 0.372578 0.532866 
38 1 -250 -250 0 0.027255 0.686945 0.629282 0.362446 
39 1 0 -250 0 0.511758 0.415974 0.584568 0.472599 
40 1 250 -250 0 0.142214 0.685496 0.355542 0.619242 
ITEM: TIMESTEP
10000
ITEM: NUMBER OF ATOMS
40
ITEM: BOX BOUNDS pp pp pp
-5.0000000000000000e+02 5.0000000000000000e+02
-5.0000000000000000e+02 5.0000000000000000e+02
-5.0000000000000000e+02 5.0000000000000000e+02
ITEM: ATOMS id type x y z c_q[1] c_q[2] c_q[3] c_q[4] 
2 1 -245.413 499.504 -494.54 0.711801 0.0546232 0.580467 0.391681 
1 1 497.603 -491.434 -498.689 0.560307 0.555218 0.602872 0.11973 
5 1 -498.7 -250.244 -494.179 0.103655 0.528587 0.580816 0.610332 
6 1 -242.674 -252.352 -495.934 0.372889 0.570494 0.247621 0.688603 
7 1 -0.996824 -248.725 -491.497 0.673554 0.491826 0.357124 0.420589 
8 1 250.939 -254.684 -495.141 0.096097 0.725831 0.579184 0.358442 
10 1 -251.308 -3.41746 -497.65 0.456649 0.288509 0.536248 0.648592 
11 1 -1.10442 2.94258 -499.316 0.862711 0.249216 0.315131 0.307105 
13 1 -497.806 246.71 -497.1 0.56072 0.171045 0.399675 0.704696 
16 1 249.935 247.868 -499.375 0.518227 0.652164 0.19777 0.51673 
3 1 0.319618 493.659 -499 0.400873 0.431071 0.602891 0.538518 
4 1 252.736 495.804 -499.014 0.682601 0.150418 0.398445 0.593862 
19 1 2.64824 -497.161 -249.623 0.604665 0.424787 0.314608 0.595784 
17 1 495.698 -495.866 -251.491 0.633262 0.345693 0.556221 0.412424 
21 1 -498.408 -251.519 -250.71 0.36657 0.532129 0.614833 0.452155 
22 1 -250.836 -251.478 -249.452 0.493186 0.0690848 0.498471 0.709592 
23 1 -0.0216816 -248.936 -250.68 0.608236 0.511867 0.0965228 0.598936 
24 1 248.763 -251.768 -250.805 0.610166 0.113357 0.662931 0.418773 
25 1 -497.589 -0.360725 -250.028 0.841237 0.492631 0.214699 0.0594873 
27 1 0.251349 -1.51048 -247.095 0.483082 0.535251 0.316833 0.616242 
28 1 251.998 0.561041 -244.09 0.158729 0.51588 0.56497 0.624085 
26 1 -249.377 2.82085 -248.668 0.35178 -0.0284237 0.597757 0.719812 
29 1 -495.4 244.299 -252.266 0.480041 0.0987513 0.849008 0.197469 
30 1 -254.006 256.886 -252.309 0.442795 0.816059 0.369969 0.0332089 
31 1 1.54345 244.57 -244.294 0.313906 0.362716 0.0816181 0.873635 
32 1 255.283 251.98 -248.973 0.702795 0.668808 0.229704 0.0775322 
18 1 -246.752 497.561 -254.092 0.63678 0.650266 0.129044 0.393716 
20 1 251.037 500.409 -249.799 0.267072 0.678003 0.468527 0.499467 
34 1 -254.311 -497.073 -3.57825 0.567391 0.0554017 0.375377 0.730815 
39 1 -3.868 -243.768 -0.235298 0.529238 0.414715 0.594271 0.441317 
40 1 251.304 -252.017 0.0238237 0.0982662 0.687812 0.377047 0.61245 
35 1 3.88496 499.561 -0.787098 0.61203 0.193666 0.444272 0.624929 
33 1 -495.285 -499.561 1.38063 0.55875 0.390014 0.707956 0.185704 
38 1 -253.006 -252.781 1.00396 0.0390501 0.656875 0.658781 0.364688 
37 1 495.891 -251.454 2.78053 0.698759 0.25192 0.410216 0.529146 
36 1 248.51 -499.196 1.1686 0.645947 0.510952 0.0832264 0.561029 
9 1 -498.803 -1.05273 498.578 0.661138 0.301222 0.212324 0.653515 
12 1 250.715 2.33849 495.755 0.511232 0.259608 0.588853 0.569646 
14 1 -247.76 252.778 499.551 0.518159 0.531509 0.131323 0.657087 
15 1 0.991689 251.623 491.896 0.780607 0.138316 0.121838 0.597224 
ITEM: TIMESTEP
20000
ITEM: NUMBER OF ATOMS
40
ITEM: BOX BOUNDS pp pp pp
-5.0000000000000000e+02 5.0000000000000000e+02
-5.0000000000000000e+02 5.0000000000000000e+02
-5.0000000000000000e+02 5.0000000000000000e+02
ITEM: ATOMS id type x y z c_q[1] c_q[2] c_q[3] c_q[4] 
1 1 496.349 -487.306 -497.404 0.574077 0.543697 0.604501 0.0969989 
6 1 -245.117 -253.178 -492.45 0.428162 0.525446 0.233475 0.69719 
7 1 -4.98981 -251.353 -489.545 0.670292 0.510627 0.349111 0.409988 
8 1 245.359 -254.968 -499.307 0.137473 0.725274 0.555362 0.382952 
5 1 499.589 -248.054 -499.046 0.154968 0.478041 0.579869 0.641259 
14 1 -247.562 250.9 -496.492 0.533354 0.543078 0.123177 0.636732 
13 1 -499.713 242.266 -492.799 0.579087 0.199454 0.386996 0.689283 
2 1 -250.325 -499.525 -499.913 0.700533 0.0403088 0.586819 0.40407 
3 1 1.29541 494.565 499.903 0.39642 0.423617 0.632786 0.512817 
17 1 -494.652 -492.897 -251.183 0.613514 0.383322 0.581703 0.371868 
19 1 7.02251 -495.199 -253.255 0.618534 0.389294 0.289544 0.618086 
20 1 250.621 -499.336 -251.752 0.260169 0.703789 0.407026 0.520887 
21 1 -491.117 -256.169 -254.547 0.317166 0.545597 0.5971 0.495177 
22 1 -250.795 -251.316 -250.64 0.494779 0.0377738 0.502464 0.708023 
23 1 -4.89468 -249.92 -253.393 0.607237 0.482199 0.074286 0.62708 
24 1 249.309 -250.207 -252.403 0.592499 0.0639721 0.692496 0.406574 
25 1 -499.019 -0.68161 -255.479 0.85203 0.4844 0.190696 0.0551052 
27 1 -1.99385 -1.57966 -248.819 0.486922 0.53992 0.359671 0.584834 
28 1 249.048 -1.64047 -248.056 0.176922 0.471914 0.611166 0.610305 
26 1 -250.882 4.64044 -249.377 0.380418 0.00139276 0.568664 0.729316 
29 1 -495.014 240.628 -252.073 0.46504 0.145603 0.848027 0.208297 
30 1 -254.76 258.499 -250.985 0.44729 0.829628 0.331882 -0.03877 
31 1 0.921359 245.099 -248.499 0.321054 0.362805 0.105894 0.86838 
32 1 250.722 256.597 -247.203 0.688151 0.675853 0.243131 0.102754 
18 1 -249.74 496.499 -249.882 0.643754 0.645575 0.125469 0.391243 
33 1 -499.178 -498.126 -0.133474 0.55646 0.421787 0.697175 0.162468 
34 1 -255.161 -499.225 -5.58236 0.567973 0.038648 0.364825 0.73676 
36 1 248.862 -498.522 -1.82298 0.614743 0.525502 0.153727 0.56772 
40 1 249.768 -256.834 -2.51885 0.0657869 0.661417 0.452193 0.594745 
35 1 4.13161 -496.822 2.58363 0.610276 0.184232 0.447135 0.627449 
38 1 -252.596 -252.808 -0.134556 -0.0281028 0.642322 0.65279 0.400622 
39 1 -3.38601 -240.243 5.56129 0.530197 0.42959 0.583365 0.440487 
37 1 496.827 -253.739 2.64482 0.696604 0.260164 0.389211 0.543666 
9 1 -498.918 -4.69396 -499.896 0.653419 0.293655 0.187949 0.671926 
10 1 -253.748 -1.68418 -499.74 0.480022 0.274017 0.527933 0.644811 
12 1 255.227 -0.848014 492.228 0.492387 0.232014 0.616916 0.568454 
11 1 -12.4132 4.73201 -499.735 0.865224 0.203545 0.33806 0.309309 
15 1 -2.8634 246.589 497.142 0.770511 0.152257 0.0959023 0.611501 
16 1 250.617 245.887 499.805 0.529273 0.655859 0.213462 0.494119 
4 1 251.123 495.272 498.838 0.683128 0.153269 0.346742 0.624191 
ITEM: TIMESTEP
30000
ITEM: NUMBER OF ATOMS
40
ITEM: BOX BOUNDS pp pp pp
-5.0000000000000000e+02 5.0000000000000000e+02
-5.0000000000000000e+02 5.0000000000000000e+02
-5.0000000000000000e+02 5.0000000000000000e+02
ITEM: ATOMS id type x y z c_q[1] c_q[2] c_q[3] c_q[4] 
1 1 493.809 -488.429 -496.634 0.572416 0.525854 0.628132 0.0356046 
6 1 -237.068 -258.365 -499.204 0.408959 0.524458 0.2507 0.703452 
7 1 -9.65981 -251.833 -485.609 0.639172 0.503011 0.361019 0.456184 
8 1 246.122 -262.183 -498.813 0.14924 0.712734 0.568744 0.38245 
9 1 -499.357 -4.63439 -497 0.67455 0.275568 0.156313 0.666792 
10 1 -254.331 -5.63763 -496.235 0.432856 0.261217 0.553082 0.662195 
13 1 -496.438 243.658 -495.082 0.580833 0.185256 0.394027 0.687791 
14 1 -248.021 246.781 -490.512 0.55172 0.527023 0.0654495 0.643093 
16 1 247.995 249.099 -497.126 0.547436 0.668533 0.191283 0.465606 
3 1 3.93349 492.518 499.373 0.383092 0.432335 0.666851 0.470784 
4 1 253.47 497.877 -494.821 0.667491 0.179755 0.363046 0.624773 
17 1 -496.605 -493.526 -246.531 0.601902 0.376571 0.613654 0.345452 
18 1 -247.611 499.159 -251.144 0.638977 0.65147 0.140524 0.38412 
19 1 9.10754 -499.237 -257.035 0.58729 0.398617 0.298699 0.637944 
20 1 255.192 -497.112 -255.77 0.233356 0.735927 0.430087 0.467955 
21 1 -489.468 -259.976 -260.956 0.390166 0.533806 0.579662 0.476249 
22 1 -250.068 -254.04 -246.777 0.48446 -0.00444486 0.47427 0.735083 
23 1 -11.4661 -252.478 -253.361 0.571072 0.507879 0.0852606 0.63927 
24 1 252.273 -249.709 -256.434 0.604049 0.037739 0.695216 0.387783 
27 1 4.32523 -4.82471 -257.225 0.490753 0.513164 0.393152 0.584171 
26 1 -249.112 10.129 -248.449 0.423107 0.0388154 0.541098 0.725732 
28 1 243.107 4.14371 -247.286 0.20508 0.471546 0.629952 0.58202 
25 1 498.781 0.629428 -260.853 0.838286 0.502827 0.20135 0.0624501 
29 1 -490.282 239.764 -245.373 0.456196 0.154902 0.853053 0.200478 
30 1 -247.148 262.37 -253.718 0.436911 0.838722 0.319719 -0.0585907 
31 1 4.31147 242.384 -245.542 0.302825 0.380583 0.0830269 0.869805 
32 1 249.939 257.446 -244.016 0.671023 0.678054 0.269491 0.131702 
37 1 -497.605 -250.791 -1.0503 0.694095 0.232651 0.386869 0.560747 
38 1 -248.838 -256.952 -0.111313 -0.0571616 0.613716 0.654041 0.438538 
40 1 247.558 -253.852 -5.10423 0.0785372 0.684111 0.453972 0.565449 
34 1 -261.695 498.412 -4.41174 0.546421 0.0657805 0.408391 0.728226 
36 1 251.949 499.761 -0.528142 0.578771 0.53088 0.19163 0.588616 
33 1 -494.855 -493.553 3.83102 0.546964 0.449357 0.684855 0.172865 
35 1 4.54809 -494.346 4.62157 0.605098 0.135854 0.442782 0.647568 
39 1 -3.16697 -240.035 5.52833 0.532515 0.459533 0.600206 0.380803 
5 1 497.366 -247.813 -499.749 0.208694 0.484152 0.551377 0.64655 
12 1 254.821 -1.42279 488.499 0.506778 0.259507 0.601423 0.560466 
11 1 -11.1693 5.37055 -499.465 0.857099 0.231708 0.310022 0.33997 
15 1 -7.57612 245.168 496.239 0.786043 0.149827 0.115944 0.588426 
2 1 -250.314 498.202 -499.945 0.715211 0.0523419 0.580583 0.385561 
ITEM: TIMESTEP
40000
ITEM: NUMBER OF ATOMS
40
ITEM: BOX BOUNDS pp pp pp
-5.0000000000000000e+02 5.0000000000000000e+02
-5.0000000000000000e+02 5.0000000000000000e+02
-5.0000000000000000e+02 5.0000000000000000e+02
ITEM: ATOMS id type x y z c_q[1] c_q[2] c_q[3] c_q[4] 
1 1 491.058 -489.781 -492.63 0.541703 0.517812 0.660026 0.0528644 
7 1 -13.7174 -252.71 -481.071 0.601261 0.532991 0.358938 0.474941 
8 1 246.251 -265.213 499.811 0.129509 0.698384 0.584837 0.391732 
10 1 -253.642 -6.47754 -498.353 0.434946 0.260543 0.587992 0.630241 
9 1 494.827 -5.98992 -494.058 0.74084 0.219026 0.110566 0.625267 
11 1 -11.1658 6.286 -493.593 0.859805 0.200315 0.302956 0.358924 
14 1 -248.675 246.738 -484.891 0.569771 0.521101 0.0275706 0.634866 
16 1 249.02 252.483 -496.646 0.567532 0.651917 0.207498 0.4581 
13 1 498.106 240.85 -489.386 0.593266 0.192589 0.404294 0.668948 
3 1 2.22609 495.264 -500.019 0.442406 0.366367 0.682857 0.451398 
4 1 257.462 492.269 -490.694 0.664752 0.197784 0.355373 0.626655 
17 1 -496.195 -492.619 -236.572 0.606728 0.374114 0.59604 0.36967 
18 1 -249.989 -498.935 -253.259 0.69043 0.624261 0.119328 0.345493 
20 1 259.324 -494.739 -254.37 0.249963 0.729224 0.440161 0.460444 
21 1 -488.302 -259.268 -259.2 0.412671 0.5161 0.535842 0.525563 
22 1 -253.916 -256.336 -248.125 0.468952 -0.0287056 0.465767 0.749881 
23 1 -7.26792 -257.278 -258.904 0.579649 0.470371 0.0777721 0.660841 
24 1 252.586 -242.86 -260.369 0.616446 0.0538738 0.690645 0.374302 
25 1 -499.784 -3.71422 -261.667 0.841738 0.474345 0.210712 0.148575 
27 1 5.4186 -3.20899 -259.533 0.459087 0.514111 0.419902 0.590433 
26 1 -242.523 10.2603 -241.836 0.442696 0.0810602 0.53757 0.71307 
28 1 242.075 6.30839 -240.664 0.173842 0.50469 0.611402 0.584169 
29 1 -485.534 237.111 -247.807 0.472125 0.126309 0.849417 0.199086 
30 1 -241.923 258.847 -251.87 0.452255 0.832919 0.300921 -0.105633 
31 1 10.1448 246.137 -241.162 0.320654 0.423519 0.0932327 0.842093 
32 1 241.624 252.727 -242.379 0.687103 0.663267 0.26748 0.128142 
19 1 13.1634 497.134 -255.584 0.58804 0.3481 0.299079 0.666023 
34 1 -260.108 -496.757 -7.19973 0.542801 0.0696775 0.422484 0.722509 
35 1 5.79877 -496.748 0.134227 0.591666 0.176809 0.459056 0.638699 
37 1 498.276 -250.28 -5.98638 0.699075 0.22141 0.406286 0.545164 
36 1 248.235 499.648 -2.14549 0.593522 0.557216 0.218814 0.537925 
33 1 -492.282 -492.952 1.44645 0.549494 0.450675 0.686295 0.154748 
38 1 -240.269 -255.357 2.7638 -0.0636409 0.572663 0.674182 0.462046 
39 1 -1.39414 -237.915 8.37089 0.521992 0.465842 0.583406 0.412496 
40 1 252.521 -258.84 1.79121 0.0276532 0.675674 0.485519 0.55405 
6 1 -239.454 -257.734 499.438 0.432077 0.494387 0.267881 0.705075 
5 1 494.815 -243.549 496.649 0.180809 0.454203 0.620812 0.612863 
12 1 247.155 -5.0552 486.547 0.517513 0.267566 0.595713 0.552915 
15 1 -4.1699 240.25 495.485 0.754408 0.118276 0.0868807 0.639789 
2 1 -252.252 499.143 493.34 0.662509 0.0649702 0.639747 0.384167 
ITEM: TIMESTEP
50000
ITEM: NUMBER OF ATOMS
40
ITEM: BOX BOUNDS pp pp pp
-5.0000000000000000e+02 5.0000000000000000e+02
-5.0000000000000000e+02 5.0000000000000000e+02
-5.0000000000000000e+02 5.0000000000000000e+02
ITEM: ATOMS id type x y z c_q[1] c_q[2] c_q[3] c_q[4] 
1 1 489.042 -490.5 -495.733 0.592588 0.509322 0.618803 0.0807033 
6 1 -241.798 -254.429 -497.495 0.45383 0.469369 0.268393 0.708305 
7 1 -10.7849 -254.989 -482.555 0.611461 0.569609 0.350447 0.422903 
8 1 247.237 -267.084 -499.127 0.116202 0.676942 0.594731 0.417782 
10 1 -254.98 -7.73476 -496.021 0.420204 0.236619 0.596212 0.64185 
9 1 492.012 -8.12434 -494.076 0.750887 0.204181 0.119581 0.616587 
11 1 -12.6662 4.7644 -494.365 0.840964 0.205449 0.333801 0.373025 
14 1 -249.059 246.132 -487.259 0.574567 0.51889 0.0456726 0.6313 
16 1 247.228 259.072 -491.966 0.599652 0.632968 0.176689 0.456673 
13 1 496.059 239.251 -491.413 0.619422 0.169836 0.388102 0.660945 
3 1 4.28293 499.553 -496.418 0.444523 0.317665 0.716099 0.434386 
4 1 251.291 495.633 -490.741 0.667643 0.211584 0.324237 0.635889 
17 1 -490.008 -499.827 -237.892 0.590198 0.363614 0.60681 0.388887 
18 1 -249.803 -496.094 -259.487 0.707536 0.608414 0.108086 0.342845 
20 1 256.393 -489.325 -257.4 0.270286 0.751715 0.428869 0.421831 
21 1 -487.324 -255.079 -259.378 0.446694 0.530869 0.509836 0.508635 
22 1 -254.535 -254.08 -247.294 0.514658 -0.0900926 0.43346 0.73425 
23 1 -1.43808 -258.236 -256.097 0.558782 0.478109 0.116004 0.667621 
24 1 248.938 -243.863 -261.718 0.582924 0.0733145 0.736979 0.334196 
27 1 0.458734 -3.1094 -258.221 0.465147 0.489106 0.40884 0.614217 
25 1 499.408 -7.29301 -259.433 0.847597 0.484373 0.167499 0.137503 
26 1 -239.755 8.29442 -243.933 0.454708 0.0627919 0.514594 0.724218 
28 1 248.699 5.72451 -237.287 0.187073 0.526387 0.6097 0.562305 
29 1 -484.87 236.595 -246.976 0.491049 0.0757517 0.847568 0.186443 
30 1 -242.421 255.989 -254.846 0.489467 0.824333 0.240982 -0.151079 
31 1 11.1297 246.25 -238.685 0.355739 0.408388 0.061532 0.838381 
32 1 239.039 250.843 -242.561 0.693137 0.662594 0.246761 0.14014 
19 1 10.4165 496.206 -258.039 0.573813 0.3503 0.349781 0.652443 
34 1 -255.754 -491.577 -2.08067 0.595982 0.0830583 0.401019 0.690717 
35 1 9.03567 -494.311 -4.02338 0.582815 0.207195 0.423984 0.661539 
37 1 498.45 -251.631 -2.01669 0.722032 0.199818 0.360708 0.555547 
36 1 242.108 498.932 -2.59606 0.624579 0.544849 0.206986 0.519805 
33 1 -489.256 -491.72 3.20033 0.551178 0.40692 0.706068 0.179129 
38 1 -240.116 -254.208 5.44133 -0.0535042 0.573538 0.691248 0.436311 
39 1 1.08576 -234.385 11.5494 0.523538 0.495554 0.564917 0.401501 
40 1 250.621 -259.136 2.5493 0.0312969 0.678729 0.514811 0.522796 
2 1 -249.513 -498.851 489.092 0.628965 0.0596018 0.668705 0.392026 
5 1 494.285 -245.05 495.16 0.155355 0.405006 0.672625 0.599509 
12 1 245.873 -4.80764 484.242 0.503479 0.29814 0.602947 0.542288 
15 1 -4.20567 237.634 495.46 0.744655 0.0843698 0.0522198 0.660033 
ITEM: TIMESTEP
60000
ITEM: NUMBER OF ATOMS
40
ITEM: BOX BOUNDS pp pp pp
-5.0000000000000000e+02 5.0000000000000000e+02
-5.0000000000000000e+02 5.0000000000000000e+02
-5.0000000000000000e+02 5.0000000000000000e+02
ITEM: ATOMS id type x y z c_q[1] c_q[2] c_q[3] c_q[4] 
1 1 489.744 -491.526 -497.579 0.578912 0.461687 0.669039 0.0639676 
6 1 -245.466 -249.23 -492.955 0.479273 0.478424 0.269898 0.684517 
7 1 -5.43339 -252.509 -484.789 0.605853 0.583134 0.354264 0.409138 
10 1 -259.44 -13.2835 -494.091 0.464379 0.280293 0.578358 0.609336 
9 1 488.044 -11.3884 -498.999 0.726817 0.224682 0.12254 0.637368 
11 1 -12.9573 1.04306 -493.358 0.835919 0.211536 0.331824 0.382602 
14 1 -251.579 249.869 -482.861 0.581671 0.580479 0.0749322 0.564879 
15 1 -2.91609 231.918 -497.762 0.711605 0.0904474 0.0804102 0.692078 
16 1 252.828 259.729 -492.134 0.582631 0.678683 0.147941 0.421952 
13 1 496.079 238.903 -492.201 0.62582 0.195855 0.386697 0.648425 
4 1 246.313 493.075 -496.439 0.688673 0.219052 0.360977 0.589441 
17 1 -487.956 -498.791 -236.367 0.623273 0.377605 0.581231 0.362098 
18 1 -244.755 -494.896 -253.449 0.752267 0.593397 0.0974085 0.269233 
20 1 262.43 -488.338 -261.615 0.256294 0.764321 0.461539 0.370283 
21 1 -488.476 -258.542 -264.033 0.465759 0.488462 0.528361 0.515081 
22 1 -256.323 -253.181 -244.147 0.530613 -0.161172 0.431204 0.711714 
23 1 -7.57533 -259.915 -259.226 0.554869 0.500349 0.154461 0.646462 
24 1 252.992 -246.434 -262.214 0.608054 0.0214854 0.740797 0.284653 
27 1 1.81243 -7.33827 -261.993 0.504946 0.496389 0.374918 0.598384 
25 1 498.61 -7.66197 -264.653 0.834557 0.494933 0.194861 0.143473 
26 1 -240.235 6.86795 -242.713 0.514196 0.0817826 0.506668 0.687169 
28 1 253.609 5.15213 -235.104 0.176195 0.553731 0.611509 0.537024 
29 1 -480.793 235.051 -243.616 0.528159 0.153392 0.823888 0.13685 
30 1 -243.894 245.527 -250.416 0.446391 0.850061 0.235648 -0.150336 
31 1 11.6267 250.79 -238.364 0.352003 0.388296 0.0828773 0.847615 
32 1 240.999 249.372 -244.317 0.664452 0.672372 0.279347 0.168478 
19 1 13.9881 494.703 -252.743 0.575524 0.326557 0.307835 0.683645 
35 1 2.66046 -493.631 -7.26982 0.610833 0.254172 0.388372 0.641441 
33 1 -484.41 -495.483 4.04909 0.623119 0.357209 0.666932 0.19831 
34 1 -254.957 -484.938 2.95763 0.618408 0.114864 0.361732 0.688133 
38 1 -241.587 -256.362 12.458 -0.053987 0.588574 0.659142 0.464971 
39 1 -2.00512 -232.905 8.77256 0.549869 0.488627 0.537917 0.411745 
40 1 246.108 -259.722 -0.337792 0.0231432 0.695743 0.509169 0.506116 
37 1 499 -249.189 -0.272103 0.737936 0.240008 0.368196 0.512131 
36 1 237.843 498.957 1.60114 0.61319 0.5474 0.184392 0.538842 
2 1 -251.539 499.36 490.334 0.583317 0.111015 0.690278 0.413441 
3 1 -4.14948 499.666 498.065 0.464453 0.32193 0.72091 0.401166 
8 1 243.485 -267.732 499.013 0.132206 0.705637 0.565441 0.406047 
5 1 489.652 -240.763 493.864 0.12489 0.432084 0.689055 0.568251 
12 1 247.413 -0.0542609 488.844 0.4568 0.324693 0.62568 0.542617 
ITEM: TIMESTEP
70000
ITEM: NUMBER OF ATOMS
40
ITEM: BOX BOUNDS pp pp pp
-5.0000000000000000e+02 5.0000000000000000e+02
-5.0000000000000000e+02 5.0000000000000000e+02
-5.0000000000000000e+02 5.0000000000000000e+02
ITEM: ATOMS id type x y z c_q[1] c_q[2] c_q[3] c_q[4] 
3 1 -8.2595 -499.618 -498.664 0.428867 0.325607 0.762169 0.359377 
1 1 491.814 -489.501 -494.809 0.56554 0.470238 0.671058 0.0933895 
6 1 -245.474 -248.855 -493.983 0.47069 0.50675 0.244925 0.679461 
7 1 -7.26247 -256.177 -478.828 0.599036 0.602264 0.353392 0.391851 
10 1 -263.213 -10.732 -493.681 0.440646 0.285575 0.608753 0.594725 
11 1 -18.3886 -0.680778 -496.314 0.833925 0.213991 0.345654 0.37323 
9 1 494.551 -8.47693 -499.774 0.723069 0.220569 0.136108 0.640308 
14 1 -249.191 251.856 -485.485 0.594085 0.604548 0.0756098 0.525231 
15 1 -3.64433 230.737 499.403 0.734972 0.0364458 0.0576304 0.674661 
16 1 253.534 252.373 -494.826 0.572888 0.685704 0.13398 0.428554 
13 1 496.503 236.332 -492.304 0.647777 0.255992 0.379648 0.608868 
4 1 247.139 493.761 -494.185 0.674365 0.236499 0.35973 0.599911 
17 1 -481.004 -498.981 -230.988 0.598882 0.386596 0.59445 0.372174 
18 1 -254.201 -495.932 -255.979 0.728543 0.625479 0.0936049 0.263134 
20 1 261.667 -487.181 -263.361 0.203211 0.739608 0.525344 0.368374 
21 1 -488.727 -259.189 -256.723 0.495266 0.504907 0.502814 0.496949 
22 1 -257.102 -257.336 -244.688 0.519004 -0.129297 0.40188 0.743243 
23 1 -9.34383 -261.599 -265.977 0.567423 0.469332 0.154042 0.65881 
24 1 252.015 -245.737 -260.389 0.633636 0.0227415 0.722359 0.27602 
27 1 -0.41904 -3.61001 -258.6 0.504348 0.480981 0.394735 0.598727 
25 1 -499.835 -9.25605 -265.202 0.819504 0.529749 0.18196 0.121116 
26 1 -235.492 5.85804 -241.46 0.504968 0.116094 0.495099 0.697428 
28 1 254.296 9.77473 -235.105 0.204657 0.552192 0.609837 0.530376 
29 1 -483.263 236.24 -247.028 0.544652 0.151905 0.815389 0.124178 
30 1 -240.584 249.74 -256.285 0.500103 0.812726 0.268199 -0.132068 
31 1 14.2755 253.195 -236.034 0.319063 0.443139 0.0485758 0.836342 
32 1 241.239 248.067 -244.724 0.68432 0.668999 0.242187 0.159662 
19 1 20.2037 493.723 -259.775 0.575567 0.337909 0.320312 0.672265 
35 1 1.39686 -492.156 -5.57312 0.599837 0.245542 0.38198 0.658784 
36 1 237.543 499.14 -2.29988 0.585285 0.544142 0.246366 0.54832 
40 1 248.46 -258.168 -6.23907 0.0443744 0.673628 0.524147 0.51916 
33 1 -490.096 -494.692 4.43915 0.592683 0.36119 0.68651 0.216731 
34 1 -251.741 -485.415 7.57687 0.63885 0.139429 0.366832 0.661713 
37 1 498.847 -253.707 -1.04463 0.750038 0.261716 0.395882 0.460679 
38 1 -241.504 -252.717 15.2682 -0.0283244 0.61059 0.661093 0.435126 
39 1 3.74242 -230.398 0.566485 0.549058 0.482413 0.528596 0.431741 
8 1 239.937 -266.922 498.604 0.123708 0.693551 0.589764 0.394793 
5 1 488.1 -243.041 492.757 0.165325 0.458687 0.708579 0.510087 
12 1 249.667 -1.86984 493.787 0.450187 0.332711 0.64568 0.519358 
2 1 -249.056 -499.654 488.574 0.612966 0.129644 0.661306 0.41248 
ITEM: TIMESTEP
80000
ITEM: NUMBER OF ATOMS
40
ITEM: BOX BOUNDS pp pp pp
-5.0000000000000000e+02 5.0000000000000000e+02
-5.0000000000000000e+02 5.0000000000000000e+02
-5.0000000000000000e+02 5.0000000000000000e+02
ITEM: ATOMS id type x y z c_q[1] c_q[2] c_q[3] c_q[4] 
1 1 494.732 -490.627 -492.718 0.565395 0.505729 0.647358 0.0741162 
6 1 -244.778 -247.389 -488.979 0.468982 0.498505 0.283601 0.671654 
7 1 -5.24037 -253.554 -485.839 0.608219 0.616907 0.310146 0.391541 
10 1 -260.771 -9.08696 -489.327 0.454782 0.326514 0.594286 0.577395 
11 1 -18.1101 2.26299 -498.965 0.82988 0.179452 0.385908 0.360793 
13 1 -499.522 239.675 -491.438 0.642016 0.222374 0.34643 0.646801 
14 1 -244.843 249.541 -488.572 0.589703 0.613228 0.0453933 0.523586 
15 1 -5.1214 232.708 -497.304 0.727017 0.079265 0.0852093 0.676685 
16 1 251.298 248.951 -495.201 0.560354 0.697194 0.0964508 0.436603 
3 1 -4.7662 499.89 -497.636 0.46068 0.329824 0.734021 0.374439 
4 1 243.95 493.31 -488.523 0.65192 0.232325 0.37353 0.617658 
18 1 -255.089 -499.075 -256.321 0.729996 0.608145 0.0664349 0.304716 
20 1 260.454 -484.843 -260.973 0.2159 0.717412 0.545914 0.37508 
21 1 -488.586 -260.667 -254.195 0.493652 0.514765 0.504128 0.487012 
22 1 -256.241 -255.413 -242.349 0.521792 -0.136324 0.411762 0.734575 
23 1 -11.236 -258.548 -264.793 0.57792 0.451507 0.138937 0.665468 
24 1 255.952 -252.532 -262.736 0.637694 0.0394721 0.711928 0.291455 
25 1 -498.32 -7.74983 -270.85 0.809869 0.547246 0.18493 0.102157 
27 1 -2.23738 -2.41903 -255.896 0.504549 0.466417 0.39111 0.612306 
26 1 -231.586 12.089 -240.646 0.543214 0.147007 0.461448 0.685837 
28 1 252.914 3.49607 -235.496 0.23417 0.56107 0.572966 0.549613 
29 1 -490.872 240.947 -244.189 0.501478 0.10427 0.850932 0.116462 
30 1 -239.412 245.735 -259.943 0.498411 0.812674 0.283813 -0.102941 
31 1 10.1178 249.059 -237.199 0.282104 0.39858 0.0434783 0.871585 
32 1 236.744 248.186 -245.605 0.672223 0.679291 0.240509 0.169809 
17 1 -476.841 497.65 -227.806 0.602036 0.384122 0.580787 0.390756 
19 1 24.3786 490.513 -258.058 0.578422 0.335721 0.321258 0.670457 
35 1 3.86625 -496.323 -5.34958 0.558111 0.274566 0.435162 0.650969 
36 1 237.227 -495.056 -2.95931 0.591753 0.53488 0.267131 0.540715 
40 1 245.313 -259.061 -7.00812 0.0383372 0.64837 0.504122 0.569217 
37 1 499.169 -258.558 -4.34203 0.776761 0.244632 0.372354 0.44514 
33 1 -490.425 -499.767 2.47361 0.613329 0.36215 0.666615 0.219771 
34 1 -247.513 -487.076 2.93709 0.648638 0.170187 0.334481 0.662138 
38 1 -241.675 -257.204 14.4716 -0.0814661 0.66597 0.616314 0.412315 
39 1 4.48089 -228.928 2.25294 0.5297 0.488582 0.485938 0.49454 
2 1 -249.443 499.339 486.297 0.616799 0.127714 0.659073 0.410939 
8 1 239.816 -268.502 497.315 0.130708 0.713847 0.580817 0.368767 
5 1 488.966 -244.836 493.785 0.177922 0.47384 0.702465 0.500362 
9 1 494.67 -3.24302 493.123 0.703348 0.242269 0.137441 0.654001 
12 1 255.245 0.42105 498.673 0.456787 0.313903 0.648765 0.521454 
ITEM: TIMESTEP
90000
ITEM: NUMBER OF ATOMS
40
ITEM: BOX BOUNDS pp pp pp
-5.0000000000000000e+02 5.0000000000000000e+02
-5.0000000000000000e+02 5.0000000000000000e+02
-5.0000000000000000e+02 5.0000000000000000e+02
ITEM: ATOMS id type x y z c_q[1] c_q[2] c_q[3] c_q[4] 
1 1 497.07 -491.806 -491.633 0.565339 0.522603 0.632554 0.084575 
6 1 -247.675 -247.614 -490.249 0.46514 0.507304 0.321502 0.650326 
7 1 -6.82515 -252.95 -483.833 0.593525 0.658519 0.283576 0.365602 
10 1 -259.942 -8.26093 -489.717 0.438391 0.292555 0.627214 0.573435 
12 1 260.464 -6.05461 499.262 0.424837 0.31122 0.64923 0.548777 
11 1 -15.3015 4.47426 -498.1 0.829462 0.175792 0.392242 0.356702 
14 1 -247.213 249.724 -480.255 0.587031 0.639744 0.00718944 0.496055 
15 1 -6.73086 231.395 -497.225 0.720684 0.0878518 0.0595543 0.685091 
16 1 252.143 251.58 -492.315 0.517547 0.696776 0.0940159 0.487656 
13 1 498.581 237.982 -489.266 0.619608 0.227997 0.341614 0.668882 
3 1 -2.29261 499.915 -494.786 0.4631 0.350592 0.742308 0.334069 
4 1 241.94 488.081 -480.853 0.643185 0.274985 0.402881 0.59024 
17 1 -474.649 -496.435 -232.382 0.587427 0.377399 0.587062 0.409704 
20 1 264.587 -485.53 -261.587 0.227294 0.728908 0.52856 0.37102 
21 1 -490.257 -263.762 -251.785 0.491408 0.574506 0.504536 0.417018 
22 1 -255.104 -252.753 -242.082 0.552342 -0.185375 0.365926 0.725708 
23 1 -6.95913 -260.526 -267.28 0.544401 0.457032 0.181426 0.679584 
24 1 256.675 -251.865 -256.809 0.626094 -0.0201753 0.700647 0.341602 
25 1 -498.511 -11.4356 -271.216 0.816138 0.509527 0.206052 0.178446 
27 1 -2.13313 -2.35614 -261.812 0.519661 0.492786 0.418261 0.558724 
26 1 -234.946 13.1264 -240.692 0.557984 0.154527 0.439014 0.687053 
28 1 254.47 0.193925 -233.543 0.27122 0.554987 0.555947 0.556194 
29 1 -490.958 241.939 -244.908 0.507373 0.117196 0.846787 0.108582 
30 1 -234.539 243.145 -262.031 0.517123 0.794301 0.304206 -0.0955444 
31 1 11.2395 246.894 -235.326 0.339202 0.421779 0.0564555 0.838962 
32 1 236.166 244.497 -250.518 0.663463 0.691659 0.20504 0.198451 
18 1 -252.07 498.029 -257.873 0.771523 0.550311 0.0137262 0.318939 
19 1 28.0929 490.859 -259.557 0.547741 0.324108 0.351986 0.686323 
36 1 236.983 -499.778 -5.38774 0.592818 0.503131 0.250977 0.576573 
37 1 -498.552 -257.873 -5.37453 0.799694 0.214978 0.383907 0.408521 
40 1 252.737 -259.845 -8.87063 0.00934376 0.629431 0.538822 0.559822 
35 1 4.73753 499.609 -10.8786 0.558351 0.254142 0.416168 0.671163 
33 1 -493.675 -499.216 1.3016 0.602943 0.406182 0.663027 0.178525 
34 1 -249.322 -481.514 6.92507 0.668485 0.161138 0.347853 0.637307 
38 1 -243.081 -256.137 13.6069 -0.155296 0.62515 0.667682 0.373191 
39 1 3.23716 -227.409 3.16713 0.552613 0.470177 0.475866 0.497096 
2 1 -252.07 -496.958 485.192 0.618948 0.113773 0.64059 0.440005 
8 1 242.467 -273.813 499.622 0.153965 0.707961 0.581944 0.369361 
5 1 488.499 -245.477 494.559 0.128139 0.447973 0.689871 0.554057 
9 1 489.761 -1.40531 492.131 0.711041 0.263935 0.116323 0.64127 
ITEM: TIMESTEP
100000
ITEM: NUMBER OF ATOMS
40
ITEM: BOX BOUNDS pp pp pp
-5.0000000000000000e+02 5.0000000000000000e+02
-5.0000000000000000e+02 5.0000000000000000e+02
-5.0000000000000000e+02 5.0000000000000000e+02
ITEM: ATOMS id type x y z c_q[1] c_q[2] c_q[3] c_q[4] 
3 1 2.59846 -494.862 -487.167 0.434126 0.398205 0.736898 0.331584 
1 1 494.09 -487.487 -488.263 0.526545 0.538379 0.657249 0.0303659 
6 1 -248.74 -244.756 -489.975 0.49151 0.451911 0.300033 0.681304 
7 1 -4.31304 -252.106 -485.059 0.572253 0.635587 0.320019 0.407607 
8 1 246.447 -270.181 -498.996 0.138477 0.706691 0.604773 0.340091 
10 1 -261.285 -15.715 -490.802 0.419012 0.294455 0.66071 0.548806 
11 1 -16.339 9.95931 -495.048 0.809579 0.175182 0.439183 0.347867 
14 1 -252.222 251.437 -481.462 0.588288 0.652489 -0.0121839 0.477522 
15 1 -7.42633 233.777 -496.452 0.728879 0.102955 0.0768618 0.672479 