LAMMPS data file

40 atoms
40 ellipsoids
0 bonds
0 angles
0 dihedrals

1 atom types
0 bond types
0 angle types
0 dihedral types

-500.000000 500.000000 xlo xhi
-500.000000 500.000000 ylo yhi
-500.000000 500.000000 zlo zhi

Masses

1 203166.000000

Atoms

1 1 -500.000000 -500.000000 -500.000000 1 1.000000 3 0.000000
2 1 -250.000000 -500.000000 -500.000000 1 1.000000 4 0.000000
3 1 0.000000 -500.000000 -500.000000 1 1.000000 5 0.000000
4 1 250.000000 -500.000000 -500.000000 1 1.000000 6 0.000000
5 1 -500.000000 -250.000000 -500.000000 1 1.000000 7 0.000000
6 1 -250.000000 -250.000000 -500.000000 1 1.000000 8 0.000000
7 1 0.000000 -250.000000 -500.000000 1 1.000000 9 0.000000
8 1 250.000000 -250.000000 -500.000000 1 1.000000 10 0.000000
9 1 -500.000000 0.000000 -500.000000 1 1.000000 11 0.000000
10 1 -250.000000 0.000000 -500.000000 1 1.000000 12 0.000000
11 1 0.000000 0.000000 -500.000000 1 1.000000 13 0.000000
12 1 250.000000 0.000000 -500.000000 1 1.000000 14 0.000000
13 1 -500.000000 250.000000 -500.000000 1 1.000000 15 0.000000
14 1 -250.000000 250.000000 -500.000000 1 1.000000 16 0.000000
15 1 0.000000 250.000000 -500.000000 1 1.000000 17 0.000000
16 1 250.000000 250.000000 -500.000000 1 1.000000 18 0.000000
17 1 -500.000000 -500.000000 -250.000000 1 1.000000 19 0.000000
18 1 -250.000000 -500.000000 -250.000000 1 1.000000 20 0.000000
19 1 0.000000 -500.000000 -250.000000 1 1.000000 21 0.000000
20 1 250.000000 -500.000000 -250.000000 1 1.000000 22 0.000000
21 1 -500.000000 -250.000000 -250.000000 1 1.000000 23 0.000000
22 1 -250.000000 -250.000000 -250.000000 1 1.000000 24 0.000000
23 1 0.000000 -250.000000 -250.000000 1 1.000000 25 0.000000
24 1 250.000000 -250.000000 -250.000000 1 1.000000 26 0.000000
25 1 -500.000000 0.000000 -250.000000 1 1.000000 27 0.000000
26 1 -250.000000 0.000000 -250.000000 1 1.000000 28 0.000000
27 1 0.000000 0.000000 -250.000000 1 1.000000 29 0.000000
28 1 250.000000 0.000000 -250.000000 1 1.000000 30 0.000000
29 1 -500.000000 250.000000 -250.000000 1 1.000000 31 0.000000
30 1 -250.000000 250.000000 -250.000000 1 1.000000 32 0.000000
31 1 0.000000 250.000000 -250.000000 1 1.000000 33 0.000000
32 1 250.000000 250.000000 -250.000000 1 1.000000 34 0.000000
33 1 -500.000000 -500.000000 0.000000 1 1.000000 35 0.000000
34 1 -250.000000 -500.000000 0.000000 1 1.000000 36 0.000000
35 1 0.000000 -500.000000 0.000000 1 1.000000 37 0.000000
36 1 250.000000 -500.000000 0.000000 1 1.000000 38 0.000000
37 1 -500.000000 -250.000000 0.000000 1 1.000000 39 0.000000
38 1 -250.000000 -250.000000 0.000000 1 1.000000 40 0.000000
39 1 0.000000 -250.000000 0.000000 1 1.000000 41 0.000000
40 1 250.000000 -250.000000 0.000000 1 1.000000 42 0.000000

Ellipsoids

1 55.000000 110.000000 110.000000 0.583375 0.462656 0.646166 0.167610
2 55.000000 110.000000 110.000000 0.597512 0.007909 0.799954 0.054684
3 55.000000 110.000000 110.000000 0.458302 0.698958 0.505566 0.214057
4 55.000000 110.000000 110.000000 0.968904 0.101119 0.058926 0.218010
5 55.000000 110.000000 110.000000 0.450980 0.450645 0.539999 0.549488
6 55.000000 110.000000 110.000000 0.648517 0.296549 0.645673 0.273113
7 55.000000 110.000000 110.000000 0.151875 0.041500 0.853258 0.497154
8 55.000000 110.000000 110.000000 0.816407 0.138124 0.295674 0.476422
9 55.000000 110.000000 110.000000 0.102873 0.500683 0.678090 0.528135
10 55.000000 110.000000 110.000000 0.181469 0.348800 0.868721 0.301216
11 55.000000 110.000000 110.000000 0.317008 0.032239 0.537903 0.780466
12 55.000000 110.000000 110.000000 0.562802 0.497185 0.568962 0.335177
13 55.000000 110.000000 110.000000 0.322879 0.495986 0.628484 0.504733
14 55.000000 110.000000 110.000000 0.630534 0.648196 0.002427 0.426923
15 55.000000 110.000000 110.000000 0.311926 0.424734 0.350411 0.774284
16 55.000000 110.000000 110.000000 0.014059 0.606836 0.407728 0.682136
17 55.000000 110.000000 110.000000 0.540053 0.436227 0.588193 0.414822
18 55.000000 110.000000 110.000000 0.608233 0.594883 0.287217 0.440084
19 55.000000 110.000000 110.000000 0.554656 0.453992 0.450574 0.532195
20 55.000000 110.000000 110.000000 0.106149 0.672636 0.379311 0.626431
21 55.000000 110.000000 110.000000 0.032712 0.769951 0.545499 0.329449
22 55.000000 110.000000 110.000000 0.086543 0.211945 0.697228 0.679310
23 55.000000 110.000000 110.000000 0.358050 0.161869 0.519466 0.758784
24 55.000000 110.000000 110.000000 0.666312 0.316479 0.550804 0.390491
25 55.000000 110.000000 110.000000 0.028251 0.335707 0.784641 0.520424
26 55.000000 110.000000 110.000000 0.467143 0.648332 0.416869 0.433201
27 55.000000 110.000000 110.000000 0.555918 0.227850 0.553923 0.576375
28 55.000000 110.000000 110.000000 0.052595 0.992780 0.040148 0.100049
29 55.000000 110.000000 110.000000 0.135927 0.944346 0.226787 0.195707
30 55.000000 110.000000 110.000000 0.220562 0.808510 0.428343 0.337915
31 55.000000 110.000000 110.000000 0.647620 0.604932 0.035696 0.461922
32 55.000000 110.000000 110.000000 0.136784 0.491161 0.789482 0.341714
33 55.000000 110.000000 110.000000 0.122358 0.768513 0.627261 0.030978
34 55.000000 110.000000 110.000000 0.128035 0.552461 0.758841 0.320242
35 55.000000 110.000000 110.000000 0.341880 0.548019 0.628024 0.434027
36 55.000000 110.000000 110.000000 0.285190 0.265818 0.848013 0.359001
37 55.000000 110.000000 110.000000 0.568889 0.424412 0.528218 0.466075
38 55.000000 110.000000 110.000000 0.027987 0.075556 0.874684 0.477950
39 55.000000 110.000000 110.000000 0.682522 0.526302 0.387311 0.327353
40 55.000000 110.000000 110.000000 0.577278 0.102932 0.563663 0.581755




