ITEM: TIMESTEP
0
ITEM: NUMBER OF ATOMS
40
ITEM: BOX BOUNDS pp pp pp
-5.0000000000000000e+02 5.0000000000000000e+02
-5.0000000000000000e+02 5.0000000000000000e+02
-5.0000000000000000e+02 5.0000000000000000e+02
ITEM: ATOMS id type x y z c_q[1] c_q[2] c_q[3] c_q[4] 
1 1 -500 -500 -500 0.583375 0.462656 0.646166 0.16761 
2 1 -250 -500 -500 0.597512 0.007909 0.799954 0.054684 
3 1 0 -500 -500 0.458302 0.698958 0.505566 0.214057 
4 1 250 -500 -500 0.968904 0.101119 0.058926 0.21801 
5 1 -500 -250 -500 0.45098 0.450645 0.539999 0.549488 
6 1 -250 -250 -500 0.648517 0.296549 0.645673 0.273113 
7 1 0 -250 -500 0.151875 0.0415 0.853258 0.497154 
8 1 250 -250 -500 0.816407 0.138124 0.295674 0.476422 
9 1 -500 0 -500 0.102873 0.500683 0.67809 0.528135 
10 1 -250 0 -500 0.181469 0.3488 0.868721 0.301216 
11 1 0 0 -500 0.317008 0.032239 0.537903 0.780466 
12 1 250 0 -500 0.562802 0.497185 0.568962 0.335177 
13 1 -500 250 -500 0.322879 0.495986 0.628484 0.504733 
14 1 -250 250 -500 0.630534 0.648196 0.002427 0.426923 
15 1 0 250 -500 0.311926 0.424734 0.350411 0.774284 
16 1 250 250 -500 0.014059 0.606836 0.407728 0.682136 
17 1 -500 -500 -250 0.540053 0.436227 0.588193 0.414822 
18 1 -250 -500 -250 0.608233 0.594883 0.287217 0.440084 
19 1 0 -500 -250 0.554656 0.453992 0.450574 0.532195 
20 1 250 -500 -250 0.106149 0.672636 0.379311 0.626431 
21 1 -500 -250 -250 0.032712 0.769951 0.545499 0.329449 
22 1 -250 -250 -250 0.086543 0.211945 0.697228 0.67931 
23 1 0 -250 -250 0.35805 0.161869 0.519466 0.758784 
24 1 250 -250 -250 0.666312 0.316479 0.550804 0.390491 
25 1 -500 0 -250 0.028251 0.335707 0.784641 0.520424 
26 1 -250 0 -250 0.467143 0.648332 0.416869 0.433201 
27 1 0 0 -250 0.555918 0.22785 0.553923 0.576375 
28 1 250 0 -250 0.052595 0.99278 0.040148 0.100049 
29 1 -500 250 -250 0.135927 0.944346 0.226787 0.195707 
30 1 -250 250 -250 0.220562 0.80851 0.428343 0.337915 
31 1 0 250 -250 0.64762 0.604932 0.035696 0.461922 
32 1 250 250 -250 0.136784 0.491161 0.789482 0.341714 
33 1 -500 -500 0 0.122358 0.768513 0.627261 0.030978 
34 1 -250 -500 0 0.128035 0.552461 0.758841 0.320242 
35 1 0 -500 0 0.34188 0.548019 0.628024 0.434027 
36 1 250 -500 0 0.28519 0.265818 0.848013 0.359001 
37 1 -500 -250 0 0.568889 0.424412 0.528218 0.466075 
38 1 -250 -250 0 0.027987 0.075556 0.874684 0.47795 
39 1 0 -250 0 0.682522 0.526302 0.387311 0.327353 
40 1 250 -250 0 0.577278 0.102932 0.563663 0.581755 
ITEM: TIMESTEP
10000
ITEM: NUMBER OF ATOMS
40
ITEM: BOX BOUNDS pp pp pp
-5.0000000000000000e+02 5.0000000000000000e+02
-5.0000000000000000e+02 5.0000000000000000e+02
-5.0000000000000000e+02 5.0000000000000000e+02
ITEM: ATOMS id type x y z c_q[1] c_q[2] c_q[3] c_q[4] 
8 1 246.972 -249.832 -493.696 0.827638 0.149583 0.303488 0.447812 
11 1 0.278974 0.539403 -496.824 0.330812 0.098765 0.538893 0.768378 
12 1 250.253 -2.27002 -493.185 0.552556 0.505806 0.570141 0.337315 
9 1 -498.162 2.93879 -498.122 0.0587184 0.509401 0.713205 0.477914 
10 1 -250.062 -0.0434366 -495.768 0.211566 0.307126 0.881326 0.290133 
15 1 -0.0593778 255.148 -497.491 0.283806 0.418373 0.399967 0.76449 
16 1 248.288 246.329 -492.566 -0.0154942 0.572852 0.397477 0.716667 
1 1 496.496 500.134 -499.337 0.592288 0.489081 0.629551 0.116875 
19 1 -1.46038 -496.959 -248.601 0.538908 0.420465 0.463534 0.563847 
22 1 -251.122 -248.691 -249.8 0.0199689 0.308163 0.714034 0.628325 
23 1 4.33099 -254.17 -253.68 0.384071 0.107335 0.535896 0.744167 
24 1 247.954 -252.123 -242.616 0.66124 0.330923 0.534528 0.409305 
21 1 500.105 -254.278 -253.499 0.0241011 0.76335 0.551675 0.335216 
27 1 0.498357 -5.37707 -250.289 0.587952 0.206143 0.534756 0.570837 
26 1 -250.597 2.1718 -249.249 0.468136 0.649277 0.410816 0.436484 
28 1 250.744 2.58238 -250.475 0.0403549 0.997363 0.00427554 0.0601689 
25 1 497.175 0.717302 -249.563 0.0668796 0.373505 0.757593 0.531107 
30 1 -253.609 245.608 -251.587 0.206684 0.780163 0.465988 0.362604 
31 1 1.11571 245.014 -254.673 0.636313 0.602783 0.00617588 0.481373 
32 1 253.666 249.728 -251.833 0.127876 0.475496 0.804357 0.332508 
29 1 496.933 247.817 -251.826 0.151256 0.946659 0.237593 0.156547 
17 1 499.146 499.555 -249.606 0.546529 0.413434 0.594029 0.421317 
18 1 -257.659 499.489 -248.135 0.649453 0.568611 0.237212 0.44567 
20 1 254.483 491.443 -255.961 0.130814 0.674378 0.384586 0.6166 
35 1 1.18198 -498.803 -5.0839 0.319562 0.541585 0.635805 0.44757 
38 1 -252.326 -249.39 -1.38074 -0.0188691 0.0841132 0.856679 0.508596 
34 1 -248.987 499.045 -7.17286 0.123799 0.535799 0.780386 0.297643 
36 1 248.198 496.776 -8.96207 0.290666 0.285074 0.843805 0.349626 
37 1 -497.384 -251.452 4.56564 0.5907 0.437764 0.53394 0.417546 
39 1 0.974499 -255.126 -0.416097 0.672296 0.504122 0.398168 0.367888 
40 1 255.654 -250.446 1.82543 0.62578 0.0990856 0.536981 0.556985 
33 1 -496.308 -498.686 2.99488 0.0784205 0.736011 0.670869 0.0455258 
2 1 -249.366 -497.246 499.061 0.561268 -0.0142355 0.826957 0.030306 
4 1 246.255 -495.764 495.442 0.973258 0.0959822 0.0394624 0.204937 
6 1 -257.323 -252.737 499.922 0.630832 0.292334 0.650664 0.305332 
7 1 -1.20907 -250.977 495.426 0.133341 0.0174672 0.870674 0.473119 
5 1 500.211 -248.784 496.587 0.442925 0.452818 0.523247 0.570076 
14 1 -251.766 250.595 496.57 0.634217 0.652936 -0.00687416 0.414 
13 1 497.822 246.081 496.568 0.364907 0.504642 0.608799 0.49147 
3 1 -2.24852 498.915 493.558 0.444329 0.712131 0.507955 0.19345 
ITEM: TIMESTEP
20000
ITEM: NUMBER OF ATOMS
40
ITEM: BOX BOUNDS pp pp pp
-5.0000000000000000e+02 5.0000000000000000e+02
-5.0000000000000000e+02 5.0000000000000000e+02
-5.0000000000000000e+02 5.0000000000000000e+02
ITEM: ATOMS id type x y z c_q[1] c_q[2] c_q[3] c_q[4] 
8 1 250.863 -247.334 -493.502 0.823449 0.145141 0.299112 0.45978 
10 1 -252.059 -5.23284 -493.269 0.18888 0.357244 0.867639 0.289662 
11 1 -1.43821 -0.421405 -493.596 0.350032 0.103121 0.501228 0.784611 
12 1 251.26 -3.45224 -495.262 0.542526 0.542771 0.549434 0.330435 
9 1 -496.121 5.00828 -497.217 0.0632838 0.540057 0.699248 0.464097 
15 1 5.68806 256.925 -498.588 0.256688 0.451056 0.412998 0.748393 
16 1 242.793 251.342 -489.898 -0.0121627 0.601818 0.406685 0.687222 
2 1 -250.491 497.766 -498.117 0.57195 0.015616 0.817484 0.0659498 
19 1 -2.69713 -488.792 -246.42 0.55386 0.403506 0.486406 0.542062 
21 1 -499.771 -257 -255.909 0.041688 0.745551 0.545021 0.381271 
22 1 -250.443 -248.82 -245.637 0.0254717 0.27071 0.718415 0.640272 
23 1 -0.642272 -255.032 -251.576 0.412575 0.0904127 0.529715 0.735533 
24 1 249.058 -255.609 -249.581 0.655809 0.301874 0.554417 0.414016 
27 1 -0.542327 -5.48728 -248.404 0.606019 0.206569 0.497604 0.585201 
26 1 -251.306 3.4462 -251.561 0.456146 0.634352 0.428231 0.454034 
28 1 251.653 0.0525808 -253.778 0.0475194 0.998321 -0.00362831 0.0329246 
25 1 495.565 2.42269 -249.706 0.0477845 0.36971 0.776902 0.5074 
29 1 499.526 251.285 -254.921 0.0952382 0.93746 0.284535 0.176459 
30 1 -247.569 246.118 -249.005 0.257187 0.758027 0.480557 0.358211 
31 1 2.60114 245.796 -258.05 0.619418 0.60485 -0.0138767 0.500285 
32 1 254.618 247.403 -251.713 0.126471 0.470787 0.794753 0.361569 
18 1 -260.758 497.83 -251.11 0.662784 0.575988 0.186625 0.440598 
20 1 250.924 485.984 -259.423 0.156678 0.670941 0.321487 0.649566 
17 1 498.047 497.751 -247.367 0.546563 0.415868 0.606485 0.400622 
35 1 3.48159 -497.851 -6.99788 0.338516 0.530056 0.638827 0.443111 
34 1 -253.757 498.417 -10.3015 0.131848 0.547568 0.764255 0.314164 
36 1 244.647 497.421 -7.47559 0.26387 0.266813 0.851325 0.366647 
33 1 -498.296 -493.61 0.333114 0.0901146 0.781948 0.615598 0.0384272 
37 1 -490.65 -253.172 4.15252 0.570064 0.40504 0.562835 0.440666 
38 1 -249.939 -251.834 1.71416 0.0179727 0.0804803 0.851342 0.518089 
39 1 0.855436 -257.434 7.33365 0.661559 0.519287 0.397587 0.366887 
40 1 253.853 -247.632 5.13858 0.602721 0.0628896 0.538235 0.585727 
1 1 499.733 -494.149 495.206 0.54922 0.567362 0.611902 0.0451006 
3 1 -2.0549 499.992 493.075 0.432773 0.700952 0.547049 0.148696 
4 1 247.175 -492.32 493.341 0.976468 0.104648 0.040808 0.184104 
6 1 -257.931 -252.474 499.406 0.638462 0.273424 0.647972 0.31263 
7 1 -2.02416 -251.84 494.073 0.118164 0.0691181 0.860812 0.490165 
5 1 495.144 -248.109 497.407 0.49336 0.423165 0.501621 0.570879 
14 1 -248.971 248.01 492.347 0.615594 0.631341 -0.00118547 0.471647 
13 1 499.692 248.868 498.421 0.375585 0.505296 0.614838 0.47496 
ITEM: TIMESTEP
30000
ITEM: NUMBER OF ATOMS
40
ITEM: BOX BOUNDS pp pp pp
-5.0000000000000000e+02 5.0000000000000000e+02
-5.0000000000000000e+02 5.0000000000000000e+02
-5.0000000000000000e+02 5.0000000000000000e+02
ITEM: ATOMS id type x y z c_q[1] c_q[2] c_q[3] c_q[4] 
2 1 -254.21 -498.433 499.445 0.578954 0.00905123 0.808671 0.103832 
6 1 -257.874 -256.636 -499.54 0.629568 0.238018 0.686749 0.274532 
8 1 254.413 -245.523 -489.426 0.857952 0.119226 0.256966 0.42857 
10 1 -253.327 -1.56683 -486.87 0.184564 0.347402 0.873722 0.286108 
11 1 -4.05316 -5.12944 -498.63 0.360947 0.138884 0.50338 0.772681 
12 1 250.918 -3.97696 -495.828 0.563162 0.510796 0.546322 0.351381 
9 1 -496.706 6.38537 -500.011 0.0554182 0.549217 0.700373 0.452511 
15 1 6.35913 258.519 -489.906 0.261765 0.447836 0.392051 0.759748 
16 1 241.149 248.819 -492.916 0.0273647 0.594759 0.403083 0.695008 
13 1 498.236 254.598 -497.629 0.361557 0.531783 0.599162 0.476958 
19 1 -6.31123 -487.765 -245.902 0.548816 0.391761 0.489262 0.553125 
22 1 -249.336 -246.42 -252.059 0.0293784 0.341818 0.695801 0.630998 
23 1 -1.09916 -254.014 -253.501 0.465513 0.069748 0.509303 0.720447 
24 1 248.895 -251.636 -251.863 0.648537 0.298652 0.580873 0.390889 
21 1 497.2 -258.031 -263.627 0.0114281 0.7607 0.520595 0.387539 
27 1 -3.26215 -2.59538 -245.657 0.654163 0.193725 0.499615 0.533784 
26 1 -251.278 6.12251 -250.94 0.439836 0.633364 0.451393 0.449041 
28 1 248.299 1.13062 -254.523 0.0535847 0.997012 -0.0555712 0.0025836 
25 1 498.403 1.64109 -247.474 0.0892976 0.401487 0.73084 0.544708 
29 1 -496.919 251.646 -253.813 0.0962183 0.909782 0.319095 0.24742 
30 1 -246.406 248.65 -253.547 0.299921 0.721039 0.482415 0.39677 
31 1 0.362656 242.691 -258.751 0.636488 0.610796 -0.0321249 0.469871 
32 1 247.723 246.701 -253.292 0.102969 0.502387 0.781936 0.354374 
17 1 -497.892 -499.395 -248.811 0.546211 0.42305 0.627818 0.358507 
18 1 -262.185 498.23 -250.586 0.66394 0.53104 0.233547 0.471843 
20 1 249.542 490.104 -258.44 0.105825 0.64034 0.380613 0.658711 
33 1 -499.314 -489.626 -1.40026 0.0826604 0.766197 0.631955 0.0821152 
35 1 7.15325 -498.681 -5.13788 0.325958 0.538718 0.639946 0.440457 
38 1 -249.656 -252.792 -1.68662 0.0042012 0.0586724 0.843764 0.533481 
34 1 -252.064 498.382 -11.9775 0.138807 0.545683 0.744493 0.358738 
36 1 245.067 495.49 -9.34454 0.282728 0.263421 0.855778 0.343975 
37 1 -486.335 -247.954 -0.335751 0.561075 0.48288 0.507788 0.440651 
39 1 1.14432 -254.231 9.72724 0.675959 0.479583 0.433914 0.353266 
40 1 256.364 -245.278 -0.208698 0.608664 0.0379862 0.565863 0.554873 
4 1 241.312 -494.833 491.977 0.966316 0.0623697 -0.0354049 0.247165 
7 1 -5.02908 -252.801 495.54 0.101079 0.126513 0.839221 0.51912 
5 1 496.42 -239.893 499.849 0.472607 0.41419 0.524945 0.57404 
14 1 -253.059 245.14 492.508 0.613705 0.618513 0.038426 0.489215 
3 1 -7.09054 498.711 493.324 0.419624 0.699194 0.570413 0.0983506 
1 1 499.116 498.266 493.525 0.540641 0.563986 0.623715 0.0246431 
ITEM: TIMESTEP
40000
ITEM: NUMBER OF ATOMS
40
ITEM: BOX BOUNDS pp pp pp
-5.0000000000000000e+02 5.0000000000000000e+02
-5.0000000000000000e+02 5.0000000000000000e+02
-5.0000000000000000e+02 5.0000000000000000e+02
ITEM: ATOMS id type x y z c_q[1] c_q[2] c_q[3] c_q[4] 
2 1 -258.312 -497.169 -498.436 0.551793 0.0127149 0.826085 0.113783 
5 1 -499.353 -240.653 -497.511 0.483234 0.411383 0.497383 0.591489 
8 1 253.446 -244.295 -488.111 0.860028 0.0924564 0.250227 0.43496 
11 1 -8.08127 -4.84159 -496.544 0.378879 0.10529 0.52736 0.753164 
12 1 255.27 -2.87802 -491.75 0.552876 0.522919 0.538632 0.361606 
9 1 -495.113 2.08351 -496.903 0.0148968 0.617001 0.649143 0.444635 
10 1 -255.579 0.661482 -486.409 0.167234 0.383092 0.840381 0.345012 
15 1 9.94727 263.73 -487.572 0.220079 0.448872 0.376425 0.779989 
16 1 238.637 245.968 -494.015 0.0183946 0.595573 0.417826 0.68584 
13 1 500.28 253.767 -493.462 0.36619 0.512908 0.611785 0.478068 
17 1 -497.481 -497.629 -245.973 0.575439 0.411982 0.614936 0.347843 
19 1 -11.1564 -486.168 -246.105 0.52412 0.38315 0.489181 0.582405 
22 1 -251.523 -245.982 -249.092 0.0672079 0.336808 0.696426 0.630107 
23 1 -1.0658 -260.303 -252.382 0.427006 0.117632 0.513761 0.734764 
24 1 252.79 -253.959 -251.814 0.670857 0.289776 0.558244 0.392868 
21 1 499.918 -255.105 -259.898 0.0420343 0.762475 0.519883 0.382866 
28 1 246.862 -5.3653 -250.4 0.0378237 0.997645 -0.0554035 -0.0142851 
25 1 -499.386 2.11565 -244.826 0.0694698 0.357157 0.739092 0.566882 
26 1 -249.346 12.0664 -260.005 0.367962 0.645417 0.489485 0.456557 
27 1 -3.20993 4.39448 -244.436 0.588221 0.166317 0.568741 0.550335 
29 1 -494.886 255.092 -253.724 0.106674 0.929339 0.276659 0.220021 
30 1 -247.707 245.998 -252.362 0.321266 0.701962 0.503845 0.387528 
31 1 -1.2818 239.994 -258.512 0.628264 0.608358 -0.071016 0.479731 
32 1 244.977 242.538 -256.583 0.0672356 0.534565 0.762605 0.357986 
18 1 -261.601 -498.78 -252.041 0.676821 0.509573 0.225946 0.48083 
20 1 250.282 492.845 -257.539 0.105818 0.618977 0.389738 0.673628 
33 1 -499.164 -488.233 -2.78676 0.00522951 0.761893 0.641055 0.0924143 
38 1 -252.213 -251.773 -4.07256 0.000171709 0.0642176 0.835626 0.545532 
34 1 -250.711 495.758 -15.8472 0.164315 0.552804 0.721169 0.383828 
35 1 4.98879 497.408 -6.65523 0.33285 0.453556 0.666236 0.489517 
36 1 242.072 494.916 -11.7585 0.307375 0.330412 0.821801 0.347838 
37 1 -478.593 -247.464 0.703028 0.579927 0.48522 0.502961 0.418659 
39 1 -2.431 -256.921 9.5625 0.658306 0.498935 0.450303 0.339004 
40 1 257.763 -246.094 0.794565 0.648436 0.0399426 0.554372 0.5202 
4 1 242.182 -493.001 490.377 0.961711 0.0296631 -0.0810968 0.260106 
6 1 -257.86 -250.935 497.313 0.618787 0.25253 0.695743 0.263197 
7 1 3.88476 -252.674 493.67 0.103562 0.0892214 0.824547 0.549032 
14 1 -251.878 244.95 493.126 0.559054 0.656143 0.0192773 0.506521 
3 1 -5.12644 493.396 491.161 0.441917 0.676029 0.580191 0.105228 
1 1 497.472 496.365 492.433 0.578211 0.551187 0.601362 0.0151409 
ITEM: TIMESTEP
50000
ITEM: NUMBER OF ATOMS
40
ITEM: BOX BOUNDS pp pp pp
-5.0000000000000000e+02 5.0000000000000000e+02
-5.0000000000000000e+02 5.0000000000000000e+02
-5.0000000000000000e+02 5.0000000000000000e+02
ITEM: ATOMS id type x y z c_q[1] c_q[2] c_q[3] c_q[4] 
8 1 254.477 -238.318 -483.841 0.851395 0.0877319 0.256053 0.449296 
10 1 -251.819 -2.20671 -481.361 0.1779 0.40892 0.818097 0.363116 
11 1 -7.34741 -6.90097 -496.687 0.387686 0.125273 0.564439 0.717924 
12 1 254.724 -4.92724 -493.628 0.563041 0.489115 0.553409 0.370796 
13 1 -498.131 257.452 -499.268 0.377593 0.477617 0.638494 0.470776 
15 1 13.3643 264.049 -492.624 0.244941 0.432455 0.393499 0.773399 
16 1 240.155 242.403 -495.484 0.0027742 0.611612 0.394811 0.6856 
17 1 -493.149 -496.495 -248.478 0.622703 0.370585 0.608407 0.32365 
18 1 -264.29 -497.102 -252.09 0.713362 0.505774 0.167143 0.45538 
19 1 -4.4885 -491.694 -239.071 0.553854 0.34844 0.508733 0.559487 
21 1 -496.6 -256.894 -261.411 0.00505493 0.765252 0.501147 0.404 
22 1 -258.706 -249.197 -246.764 0.0324004 0.36054 0.69432 0.621998 
23 1 2.6688 -265.948 -248.689 0.379133 0.141655 0.522318 0.750584 
24 1 254.718 -255.262 -251.019 0.629293 0.306329 0.576877 0.421148 
28 1 246.966 -10.1812 -248.147 0.0475621 0.997698 -0.044436 -0.0190521 
25 1 -496.28 7.52299 -247.427 0.034458 0.350289 0.752518 0.556621 
26 1 -248.276 7.96052 -266.444 0.404365 0.605083 0.499515 0.469945 
27 1 -4.87483 0.125031 -240.765 0.587086 0.180551 0.548534 0.567312 
29 1 -492.875 255.651 -251.617 0.0917127 0.937418 0.266725 0.204192 
30 1 -252.627 251.63 -246.614 0.335809 0.676902 0.535016 0.377882 
31 1 -1.42373 236.325 -259.316 0.602744 0.659959 -0.0619832 0.444198 
32 1 238.303 245.363 -254.705 0.0423489 0.548706 0.757779 0.350572 
20 1 253.143 499.489 -259.41 0.0843057 0.655548 0.405472 0.63146 
33 1 -498.688 -495.545 -6.90265 0.0522561 0.760709 0.640983 0.0879357 
38 1 -250.31 -254.21 -3.0913 -0.0107091 0.0278868 0.851529 0.523456 
40 1 253.476 -245.966 -3.33164 0.651489 0.0144988 0.527338 0.545222 
34 1 -249.902 490.87 -15.2526 0.149574 0.573207 0.698765 0.400985 
35 1 6.28051 497.972 -8.16498 0.284047 0.464781 0.69708 0.466235 
36 1 243.872 493.426 -10.8721 0.26084 0.375715 0.785985 0.415967 
37 1 -477.832 -244.931 0.166761 0.577769 0.532233 0.462966 0.410578 
39 1 -2.45903 -257.333 15.2657 0.666086 0.501521 0.443104 0.329342 
2 1 -256.03 -493.788 496.527 0.499213 0.00457293 0.853815 0.147535 
4 1 242.405 -492.76 490.878 0.971159 0.0314545 -0.0639299 0.227541 
6 1 -255.48 -251.021 495.023 0.632626 0.25896 0.692227 0.231399 
7 1 7.20052 -246.776 488.747 0.0476455 0.127907 0.832564 0.536848 
5 1 498.528 -235.923 498.415 0.476348 0.415972 0.487622 0.601901 
9 1 -495.98 7.20097 499.131 0.0621708 0.618429 0.621808 0.476482 
14 1 -252.702 244.735 495.292 0.551528 0.6592 -0.0705123 0.506261 
3 1 -6.2436 493.577 492.128 0.436039 0.724564 0.532054 0.0423745 
1 1 490.62 494.917 494.177 0.608121 0.51523 0.602438 0.0423695 
ITEM: TIMESTEP
60000
ITEM: NUMBER OF ATOMS
40
ITEM: BOX BOUNDS pp pp pp
-5.0000000000000000e+02 5.0000000000000000e+02
-5.0000000000000000e+02 5.0000000000000000e+02
-5.0000000000000000e+02 5.0000000000000000e+02
ITEM: ATOMS id type x y z c_q[1] c_q[2] c_q[3] c_q[4] 
8 1 254.156 -239.684 -488.349 0.834184 0.0948587 0.298634 0.453823 
5 1 497.642 -233.819 -499.34 0.446725 0.392259 0.492017 0.635994 
10 1 -252.952 -2.01851 -478.964 0.184759 0.36379 0.842305 0.352197 
12 1 253.926 -2.20454 -493.959 0.554465 0.511613 0.527336 0.390817 
9 1 -489.056 3.66446 499.348 0.108779 0.610377 0.620319 0.480428 
13 1 498.573 260.747 -496.789 0.347611 0.468686 0.638354 0.502 
15 1 14.9199 265.407 -490.145 0.227565 0.412476 0.376877 0.797522 
16 1 244.725 245.031 -497.893 0.0185064 0.642476 0.353009 0.679902 
18 1 -261.207 -495.106 -256.65 0.72031 0.523779 0.140859 0.432398 
19 1 -6.1184 -489.175 -242.916 0.551962 0.342179 0.527188 0.548018 
20 1 252.027 -493.57 -261.975 0.110482 0.647033 0.413317 0.631119 
21 1 -494.315 -259.377 -264.057 -0.030029 0.76511 0.521423 0.376595 
22 1 -255.9 -244.514 -246.914 0.040384 0.398941 0.683541 0.609907 
23 1 1.17002 -264.485 -244.391 0.372168 0.16966 0.510303 0.756503 
24 1 258.771 -256.918 -252.033 0.618592 0.22413 0.605537 0.447699 
27 1 -4.53019 -3.43447 -241.564 0.593522 0.219252 0.532584 0.562151 
28 1 241.703 -14.4187 -245.702 0.00986528 0.995452 -0.0686148 -0.0653512 
26 1 -236.973 10.1611 -268.735 0.411319 0.572604 0.518172 0.48419 
25 1 499.102 12.863 -245.291 0.0382895 0.345411 0.754517 0.556712 
29 1 -489.972 253.528 -254.16 0.0830636 0.934994 0.284544 0.194736 
30 1 -256.171 250.339 -248.607 0.380051 0.627499 0.553237 0.394632 
31 1 -2.83526 236.474 -256.749 0.610511 0.650725 -0.0835753 0.443676 
32 1 237.524 245.83 -254.295 0.0647154 0.55003 0.729914 0.400629 
17 1 -495.406 499.282 -245.242 0.595251 0.375027 0.625065 0.338121 
33 1 497.999 -497.923 -4.77732 0.0135902 0.735335 0.676224 0.0426565 
40 1 254.417 -250.432 -1.33552 0.639111 0.0304715 0.5317 0.554891 
34 1 -247.379 496.306 -13.7335 0.158335 0.594641 0.697711 0.366784 
35 1 7.3986 495.983 -9.36412 0.288484 0.430458 0.711885 0.474027 
36 1 244.735 494.247 -11.0066 0.301326 0.361856 0.763272 0.442355 
37 1 -480.662 -245.855 0.408135 0.588336 0.551068 0.437442 0.398534 
38 1 -252.028 -255.145 1.98609 0.00142808 0.0482745 0.867082 0.495819 
39 1 -7.46394 -260.271 10.9603 0.690708 0.508269 0.419084 0.29825 
2 1 -254.216 -494.29 495.258 0.503247 -0.0176313 0.849127 0.159417 
4 1 247.036 -491.382 493.68 0.970835 0.0454673 -0.0625058 0.226946 
6 1 -253.384 -251.779 495.896 0.608116 0.269919 0.701735 0.254768 
7 1 8.44348 -248.172 489.884 0.0545889 0.107296 0.848134 0.515922 
11 1 -8.06501 -9.52148 498.169 0.425214 0.111803 0.563101 0.699722 
14 1 -252.531 250.341 493.978 0.518019 0.674513 -0.0560837 0.523014 
3 1 -8.90423 493.969 488.876 0.450954 0.727582 0.516128 0.0296105 
1 1 492.871 493.961 492.278 0.595293 0.528224 0.605466 0.00401511 
ITEM: TIMESTEP
70000
ITEM: NUMBER OF ATOMS
40
ITEM: BOX BOUNDS pp pp pp
-5.0000000000000000e+02 5.0000000000000000e+02
-5.0000000000000000e+02 5.0000000000000000e+02
-5.0000000000000000e+02 5.0000000000000000e+02
ITEM: ATOMS id type x y z c_q[1] c_q[2] c_q[3] c_q[4] 
8 1 252.838 -239.957 -489.983 0.819235 0.0980158 0.30777 0.473841 
5 1 500.019 -230.286 -499.661 0.474035 0.433367 0.502616 0.578672 
10 1 -250.265 -1.65731 -471.858 0.151989 0.379773 0.848959 0.334575 
12 1 258.494 -8.50713 -496.241 0.512418 0.493832 0.572113 0.407732 
9 1 -488.078 -0.41937 -497.293 0.101877 0.620065 0.61601 0.47505 
15 1 5.65344 262.502 -490.584 0.225567 0.444006 0.41542 0.761187 
16 1 242 246.218 499.876 0.0245928 0.638851 0.349729 0.684802 
13 1 493.175 254.961 -497.559 0.355454 0.477316 0.632874 0.495271 
18 1 -261.637 -489.899 -263.001 0.730453 0.509448 0.136187 0.433998 
19 1 -5.95211 -483.465 -253.791 0.548556 0.374288 0.519757 0.537445 
20 1 256.225 -491.038 -261.924 0.0970404 0.614587 0.420423 0.660387 
21 1 -492.742 -262.863 -270.913 -0.00904019 0.740072 0.523313 0.422322 
22 1 -254.681 -247.473 -250.225 -0.0223453 0.435297 0.643637 0.629086 
23 1 0.125314 -263.867 -243.458 0.412451 0.183922 0.4886 0.746544 
24 1 257.055 -258.438 -249.749 0.610979 0.21257 0.615166 0.450655 
27 1 -6.43626 -3.13272 -236.475 0.607873 0.199862 0.535515 0.551153 
28 1 239.129 -14.7266 -244.829 0.0333866 0.99646 -0.0242987 -0.073227 
25 1 -496.619 14.536 -250.795 0.00886276 0.411134 0.730825 0.54478 
26 1 -238.684 6.41594 -268.217 0.436211 0.570664 0.501115 0.482644 
29 1 -492.422 255.857 -256.736 0.0936119 0.932474 0.289912 0.194116 
30 1 -258.613 252.042 -251.067 0.418894 0.632765 0.497274 0.420541 
31 1 -2.28335 232.962 -253.518 0.582511 0.682906 -0.0583007 0.436945 
32 1 238.337 245.406 -251.5 0.100966 0.58306 0.719892 0.36277 
17 1 499.474 499.099 -247.154 0.590316 0.396224 0.597403 0.371003 
33 1 496.17 -497.602 -1.20418 0.0342479 0.724759 0.683826 0.0770325 
40 1 252.894 -255.012 -2.36789 0.663721 0.00485243 0.501852 0.554612 
34 1 -248.739 492.036 -20.0867 0.212371 0.64918 0.657262 0.318545 
35 1 7.38844 496.516 -1.05756 0.322568 0.433664 0.693434 0.476482 
36 1 241.399 494.25 -8.65042 0.30557 0.33573 0.752824 0.476621 
37 1 -481.784 -240.204 1.75924 0.5852 0.538134 0.408123 0.448763 
38 1 -260.42 -248.975 7.70909 -0.0193238 0.0605054 0.86166 0.503495 
39 1 -10.4329 -257.34 14.447 0.713938 0.526267 0.363293 0.285227 
2 1 -256.438 -496.353 495.431 0.490317 -0.0381241 0.858691 0.144174 
4 1 249.856 -485.865 490.423 0.967101 0.108224 -0.0860428 0.213539 
6 1 -252.813 -254.233 494.454 0.610603 0.327149 0.679528 0.241618 
7 1 7.23594 -244.954 490.668 0.0634423 0.082546 0.864123 0.492394 
11 1 -10.5864 -10.0203 498.798 0.446385 0.0765243 0.592441 0.666257 
14 1 -254.262 247.849 497.786 0.51857 0.655415 -0.0579936 0.546035 
3 1 -6.98779 495.581 488.403 0.445011 0.739447 0.504169 -0.0315783 
1 1 490.606 498.936 493.78 0.572555 0.545012 0.612099 -0.0218567 
ITEM: TIMESTEP
80000
ITEM: NUMBER OF ATOMS
40
ITEM: BOX BOUNDS pp pp pp
-5.0000000000000000e+02 5.0000000000000000e+02
-5.0000000000000000e+02 5.0000000000000000e+02
-5.0000000000000000e+02 5.0000000000000000e+02
ITEM: ATOMS id type x y z c_q[1] c_q[2] c_q[3] c_q[4] 
5 1 -496.105 -232.931 -499.848 0.507091 0.397098 0.486767 0.590109 
8 1 248.499 -233.823 -491.803 0.829201 0.0591377 0.295536 0.47073 
12 1 257.598 -5.83867 -491.863 0.558583 0.458496 0.561053 0.403715 
9 1 -489.416 7.29903 -493.633 0.141849 0.617532 0.604008 0.483433 
10 1 -249.128 -0.611829 -476.337 0.170525 0.355919 0.85606 0.333772 
15 1 6.35835 263.287 -486.425 0.209636 0.477232 0.422904 0.741252 
16 1 240.083 245.34 -498.016 0.0299584 0.630473 0.359263 0.687413 
13 1 491.127 251.273 -492.181 0.315403 0.445569 0.667631 0.506219 
18 1 -259.049 -493.433 -261.566 0.715288 0.512111 0.18005 0.440099 
19 1 -3.02279 -485.931 -254.013 0.533012 0.40732 0.477451 0.567476 
20 1 254.96 -495.475 -269.454 0.0879021 0.613332 0.406963 0.671177 
21 1 -492.43 -264.668 -272.937 0.0163135 0.728573 0.519962 0.445595 
22 1 -248.789 -248.945 -253.962 0.0292615 0.439456 0.641117 0.628484 
23 1 3.91476 -269.63 -247.164 0.396037 0.175415 0.510004 0.743156 
24 1 257.834 -262.746 -247.704 0.593007 0.201949 0.630373 0.458464 
27 1 -8.75307 -3.41564 -239.647 0.597183 0.247534 0.542415 0.53655 
28 1 239.515 -16.9391 -242.31 0.0420649 0.995096 0.0108478 -0.0888585 
26 1 -239.478 4.07006 -269.354 0.436198 0.560674 0.510882 0.484123 
25 1 -499.247 22.2509 -252.135 -0.00859519 0.444009 0.735306 0.511963 
29 1 -495.115 258.868 -256.196 0.119937 0.935431 0.258983 0.208597 
30 1 -258.873 249.886 -252.935 0.409208 0.639442 0.508009 0.406926 
31 1 1.5277 231.921 -256.034 0.578878 0.675389 -0.12703 0.438877 
32 1 244.599 252.047 -251.63 0.151329 0.597153 0.716707 0.326861 
17 1 -499.793 497.844 -243.539 0.620672 0.393556 0.581882 0.348273 
33 1 -498.097 -494.976 -1.10468 0.0267833 0.687908 0.722254 0.0664322 
40 1 251.838 -253.064 -4.41224 0.665571 0.0295498 0.489209 0.562865 
34 1 -250.985 495.522 -23.4342 0.225418 0.645014 0.659524 0.313324 
35 1 14.5491 494.494 -7.20893 0.342198 0.437397 0.69125 0.462339 
36 1 244.064 498.101 -13.2113 0.320169 0.342964 0.770302 0.431859 
37 1 -482.87 -241.104 5.01682 0.579643 0.485508 0.445537 0.479368 
38 1 -258.457 -248.011 7.19694 -0.0197705 0.0473809 0.845585 0.531366 
39 1 -10.434 -256.347 15.8546 0.730974 0.521842 0.368488 0.239946 
2 1 -259.48 -498.604 496.012 0.464958 -0.00328872 0.877836 0.114923 
4 1 251.303 -488.628 487.916 0.961096 0.107277 -0.109089 0.229968 
1 1 490.77 -496.735 492.515 0.591362 0.515552 0.619682 0.0221589 
6 1 -256.874 -255.092 496.049 0.670246 0.285818 0.632853 0.261869 
7 1 4.96636 -247.565 496.186 0.0162426 0.0755254 0.879911 0.468817 
11 1 -10.2807 -8.68582 497.213 0.444603 0.0393609 0.593267 0.669935 
14 1 -255.433 245.305 495.304 0.504689 0.627055 -0.0514794 0.591135 
3 1 -5.26173 496.698 486.393 0.435102 0.747788 0.493373 -0.0899037 
ITEM: TIMESTEP
90000
ITEM: NUMBER OF ATOMS
40
ITEM: BOX BOUNDS pp pp pp
-5.0000000000000000e+02 5.0000000000000000e+02
-5.0000000000000000e+02 5.0000000000000000e+02
-5.0000000000000000e+02 5.0000000000000000e+02
ITEM: ATOMS id type x y z c_q[1] c_q[2] c_q[3] c_q[4] 
5 1 -498.153 -230.975 -496.816 0.47599 0.379012 0.503412 0.613482 
8 1 249.234 -229.384 -492.956 0.830364 0.0757538 0.296021 0.465971 
12 1 255.532 -7.97219 -491.115 0.558457 0.452524 0.573578 0.392882 
9 1 -493.041 5.29958 -498.845 0.125429 0.630204 0.577175 0.503964 
10 1 -255.193 0.516276 -471.221 0.173253 0.34909 0.844706 0.366867 
15 1 3.4573 266.52 -482.605 0.169423 0.507857 0.456087 0.710888 
13 1 498.078 248.683 -491.751 0.272012 0.426334 0.703965 0.49868 
18 1 -260.489 -499.586 -258.147 0.716694 0.486949 0.199935 0.457445 
19 1 -1.27834 -483.987 -251.12 0.493889 0.394202 0.514765 0.579391 
20 1 257.097 -494.873 -269.267 0.0784895 0.648148 0.383924 0.652952 
21 1 -496.863 -254.739 -276.317 0.0102327 0.730449 0.550191 0.404511 
22 1 -251.249 -241.47 -253.393 0.0966213 0.41655 0.666673 0.61049 
23 1 4.02839 -267.198 -249.61 0.311753 0.217133 0.542351 0.749345 
24 1 262.389 -258.481 -250.986 0.5744 0.224435 0.656322 0.434667 
27 1 -6.56571 -2.25983 -240.077 0.592934 0.236423 0.5457 0.542904 
28 1 238.285 -20.7561 -240.226 0.0760377 0.994778 -0.00764146 -0.0676483 
25 1 -493.733 22.6804 -250.493 0.0379992 0.438743 0.700923 0.561041 
26 1 -239.622 1.82504 -269.095 0.385625 0.554682 0.531437 0.511074 
29 1 499.705 260.497 -252.807 0.10392 0.931121 0.293072 0.190584 
30 1 -258.28 248.074 -253.307 0.407995 0.616286 0.545873 0.394657 
31 1 -3.87331 228.109 -256.293 0.522316 0.708507 -0.133376 0.455427 
32 1 247.866 252.322 -249.663 0.230984 0.60726 0.683918 0.331871 
17 1 -498.963 499.406 -243.153 0.578955 0.373741 0.632618 0.353444 
33 1 -498.008 -499.032 -2.44619 0.067957 0.665074 0.738859 0.0845374 
40 1 254.213 -253.689 0.0385869 0.672047 0.0338657 0.5061 0.539508 
34 1 -248.266 490.205 -18.0983 0.233671 0.657861 0.622211 0.354219 
35 1 12.2349 497.467 -12.5771 0.354689 0.463364 0.676217 0.449688 
36 1 241.881 495.647 -20.4755 0.311443 0.377211 0.753115 0.439924 
37 1 -480.814 -241.962 1.72507 0.578157 0.405155 0.489081 0.512234 
38 1 -265.403 -247.195 7.51727 0.0195944 0.0589967 0.83529 0.546284 
39 1 -4.37732 -250.505 17.7912 0.712624 0.52393 0.414101 0.214907 
2 1 -257.698 -494.387 496.125 0.51668 -0.029591 0.847139 0.120507 
4 1 246.54 -489.659 486.263 0.958125 0.0945207 -0.115764 0.244256 
1 1 485.846 -493.877 494.746 0.600277 0.520668 0.60641 0.0289529 
6 1 -256.401 -259.193 492.062 0.710843 0.278116 0.586745 0.270341 
7 1 5.11231 -247.935 492.997 0.0442073 0.104134 0.860177 0.497289 
11 1 -12.0372 -10.9793 498.503 0.429125 0.0393567 0.570535 0.699137 
14 1 -259.518 242.996 494.892 0.518825 0.609707 -0.0111465 0.599128 
16 1 244.776 244.146 -499.562 0.0250391 0.637817 0.377834 0.670674 
3 1 -3.33537 496.092 484.747 0.420137 0.763303 0.4803 -0.100825 
ITEM: TIMESTEP
100000
ITEM: NUMBER OF ATOMS
40
ITEM: BOX BOUNDS pp pp pp
-5.0000000000000000e+02 5.0000000000000000e+02
-5.0000000000000000e+02 5.0000000000000000e+02
-5.0000000000000000e+02 5.0000000000000000e+02
ITEM: ATOMS id type x y z c_q[1] c_q[2] c_q[3] c_q[4] 
8 1 248.642 -231.546 -496.409 0.807994 0.056844 0.3194 0.491832 
5 1 497.481 -241.154 -493.392 0.453612 0.370946 0.520034 0.621449 
10 1 -258.322 -0.451011 -461.765 0.163311 0.362769 0.837095 0.3755 
11 1 -11.1217 -10.0137 -499.957 0.440145 0.0276515 0.5583 0.702715 
12 1 256.975 -5.44825 -495.793 0.541511 0.475447 0.576248 0.385556 
15 1 2.34094 260.614 -480.174 0.217685 0.484142 0.435352 0.727109 
16 1 242.537 244.886 -497.124 -0.044693 0.638609 0.415495 0.646177 