ITEM: TIMESTEP
0
ITEM: NUMBER OF ATOMS
55
ITEM: BOX BOUNDS
-500.000000 500.000000
-500.000000 500.000000
-500.000000 500.000000
ITEM: ATOMS id type x y z c_q[1] c_q[2] c_q[3] c_q[4]
1 1 -500.000000 -500.000000 -500.000000 0.480797 0.282040 0.818421 0.139554
2 1 -250.000000 -500.000000 -500.000000 0.493427 0.220397 0.537725 0.647153
3 1 0.000000 -500.000000 -500.000000 0.022777 0.577079 0.241376 0.779871
4 1 250.000000 -500.000000 -500.000000 0.410944 0.216610 0.640721 0.611295
5 1 -500.000000 -250.000000 -500.000000 0.541788 0.339758 0.155740 0.752845
6 1 -250.000000 -250.000000 -500.000000 0.437344 0.284060 0.288553 0.802981
7 1 0.000000 -250.000000 -500.000000 0.510483 0.050147 0.581928 0.631073
8 1 250.000000 -250.000000 -500.000000 0.669310 0.336095 0.646774 0.144039
9 1 -500.000000 0.000000 -500.000000 0.530638 0.170218 0.698785 0.448495
10 1 -250.000000 0.000000 -500.000000 0.060295 0.142615 0.255135 0.954427
11 1 0.000000 0.000000 -500.000000 0.668363 0.102549 0.417426 0.607067
12 1 250.000000 0.000000 -500.000000 0.677637 0.038336 0.618162 0.396502
13 1 -500.000000 250.000000 -500.000000 0.053120 0.654087 0.693307 0.297782
14 1 -250.000000 250.000000 -500.000000 0.669110 0.403418 0.593995 0.191613
15 1 0.000000 250.000000 -500.000000 0.684579 0.266437 0.534564 0.417856
16 1 250.000000 250.000000 -500.000000 0.540823 0.570434 0.338989 0.516916
17 1 -500.000000 -500.000000 -250.000000 0.167152 0.316803 0.096977 0.928597
18 1 -250.000000 -500.000000 -250.000000 0.228666 0.472314 0.379324 0.762066
19 1 0.000000 -500.000000 -250.000000 0.581044 0.129389 0.509218 0.621565
20 1 250.000000 -500.000000 -250.000000 0.691300 0.523854 0.419948 0.267066
21 1 -500.000000 -250.000000 -250.000000 0.851526 0.200591 0.365907 0.317458
22 1 -250.000000 -250.000000 -250.000000 0.689185 0.366404 0.216384 0.586473
23 1 0.000000 -250.000000 -250.000000 0.401498 0.056224 0.148907 0.901923
24 1 250.000000 -250.000000 -250.000000 0.050436 0.783958 0.015658 0.618564
25 1 -500.000000 0.000000 -250.000000 0.470010 0.550744 0.685144 0.079674
26 1 -250.000000 0.000000 -250.000000 0.644222 0.321079 0.117211 0.684213
27 1 0.000000 0.000000 -250.000000 0.725442 0.389909 0.087159 0.560454
28 1 250.000000 0.000000 -250.000000 0.558693 0.038455 0.576407 0.595095
29 1 -500.000000 250.000000 -250.000000 0.035295 0.053397 0.556714 0.828235
30 1 -250.000000 250.000000 -250.000000 0.072837 0.623115 0.506514 0.591494
31 1 0.000000 250.000000 -250.000000 0.359667 0.231569 0.663925 0.613368
32 1 250.000000 250.000000 -250.000000 0.270089 0.060197 0.688499 0.670371
33 1 -500.000000 -500.000000 0.000000 0.127778 0.912920 0.018015 0.387202
34 1 -250.000000 -500.000000 0.000000 0.189468 0.760004 0.098482 0.613838
35 1 0.000000 -500.000000 0.000000 0.522927 0.362320 0.518065 0.571734
36 1 250.000000 -500.000000 0.000000 0.475868 0.522194 0.073360 0.703904
37 1 -500.000000 -250.000000 0.000000 0.522099 0.406446 0.394967 0.637350
38 1 -250.000000 -250.000000 0.000000 0.286152 0.827983 0.220639 0.428812
39 1 0.000000 -250.000000 0.000000 0.574906 0.356646 0.589282 0.441626
40 1 250.000000 -250.000000 0.000000 0.138420 0.605472 0.545099 0.563126
41 1 -500.000000 0.000000 0.000000 0.267433 0.729849 0.621256 0.099204
42 1 -250.000000 0.000000 0.000000 0.462191 0.135788 0.789808 0.379664
43 1 0.000000 0.000000 0.000000 0.755722 0.329052 0.561031 0.076499
44 1 250.000000 0.000000 0.000000 0.506491 0.571708 0.444573 0.467944
45 1 -500.000000 250.000000 0.000000 0.234437 0.693298 0.322282 0.600426
46 1 -250.000000 250.000000 0.000000 0.385176 0.608794 0.168679 0.672723
47 1 0.000000 250.000000 0.000000 0.699532 0.564885 0.114006 0.422566
48 1 250.000000 250.000000 0.000000 0.514221 0.080583 0.637994 0.567492
49 1 -500.000000 -500.000000 250.000000 0.310821 0.626914 0.539046 0.468827
50 1 -250.000000 -500.000000 250.000000 0.819231 0.129633 0.482323 0.281814
51 1 0.000000 -500.000000 250.000000 0.091903 0.122199 0.847834 0.507739
52 1 250.000000 -500.000000 250.000000 0.717001 0.027927 0.220205 0.660786
53 1 -500.000000 -250.000000 250.000000 0.698423 0.055288 0.349764 0.621943
54 1 -250.000000 -250.000000 250.000000 0.555662 0.508217 0.424579 0.502681
55 1 0.000000 -250.000000 250.000000 0.193314 0.644013 0.027628 0.739671
