ITEM: TIMESTEP
0
ITEM: NUMBER OF ATOMS
65
ITEM: BOX BOUNDS
-500.000000 500.000000
-500.000000 500.000000
-500.000000 500.000000
ITEM: ATOMS id type x y z c_q[1] c_q[2] c_q[3] c_q[4]
1 1 -500.000000 -500.000000 -500.000000 0.043787 0.706357 0.272755 0.651726
2 1 -300.000000 -500.000000 -500.000000 0.593547 0.431515 0.182235 0.654437
3 1 -100.000000 -500.000000 -500.000000 0.397796 0.432619 0.722466 0.364200
4 1 100.000000 -500.000000 -500.000000 0.688311 0.495424 0.247496 0.468539
5 1 300.000000 -500.000000 -500.000000 0.399961 0.693792 0.509171 0.315324
6 1 -500.000000 -300.000000 -500.000000 0.044033 0.717559 0.129578 0.682920
7 1 -300.000000 -300.000000 -500.000000 0.388012 0.614640 0.615842 0.303979
8 1 -100.000000 -300.000000 -500.000000 0.388477 0.795150 0.130222 0.447061
9 1 100.000000 -300.000000 -500.000000 0.597856 0.525707 0.171890 0.580219
10 1 300.000000 -300.000000 -500.000000 0.346955 0.475772 0.159766 0.792299
11 1 -500.000000 -100.000000 -500.000000 0.035169 0.726925 0.499477 0.469963
12 1 -300.000000 -100.000000 -500.000000 0.677082 0.242252 0.374472 0.585358
13 1 -100.000000 -100.000000 -500.000000 0.120766 0.395373 0.853179 0.318091
14 1 100.000000 -100.000000 -500.000000 0.404481 0.429845 0.637320 0.495430
15 1 300.000000 -100.000000 -500.000000 0.657036 0.450071 0.567451 0.209140
16 1 -500.000000 100.000000 -500.000000 0.121322 0.434021 0.578336 0.680026
17 1 -300.000000 100.000000 -500.000000 0.204156 0.698600 0.684123 0.047470
18 1 -100.000000 100.000000 -500.000000 0.483554 0.560121 0.463050 0.487878
19 1 100.000000 100.000000 -500.000000 0.182397 0.558700 0.776879 0.225929
20 1 300.000000 100.000000 -500.000000 0.303360 0.656143 0.680195 0.121588
21 1 -500.000000 300.000000 -500.000000 0.633924 0.625780 0.157360 0.426355
22 1 -300.000000 300.000000 -500.000000 0.034954 0.423579 0.722671 0.545074
23 1 -100.000000 300.000000 -500.000000 0.125523 0.630287 0.598950 0.477746
24 1 100.000000 300.000000 -500.000000 0.299081 0.516368 0.515551 0.614916
25 1 300.000000 300.000000 -500.000000 0.044226 0.554750 0.012744 0.830743
26 1 -500.000000 -500.000000 -300.000000 0.373444 0.481100 0.478754 0.632358
27 1 -300.000000 -500.000000 -300.000000 0.629740 0.142300 0.450097 0.616921
28 1 -100.000000 -500.000000 -300.000000 0.000874 0.570075 0.810444 0.134887
29 1 100.000000 -500.000000 -300.000000 0.143797 0.658051 0.459548 0.578884
30 1 300.000000 -500.000000 -300.000000 0.373338 0.616094 0.383154 0.578134
31 1 -500.000000 -300.000000 -300.000000 0.114056 0.707032 0.013132 0.697800
32 1 -300.000000 -300.000000 -300.000000 0.131528 0.688837 0.609895 0.369096
33 1 -100.000000 -300.000000 -300.000000 0.485628 0.732869 0.304730 0.366345
34 1 100.000000 -300.000000 -300.000000 0.271629 0.650199 0.689245 0.168526
35 1 300.000000 -300.000000 -300.000000 0.010981 0.582035 0.811470 0.051296
36 1 -500.000000 -100.000000 -300.000000 0.352225 0.399374 0.805123 0.261180
37 1 -300.000000 -100.000000 -300.000000 0.004341 0.254024 0.671982 0.695624
38 1 -100.000000 -100.000000 -300.000000 0.025105 0.748927 0.122382 0.650770
39 1 100.000000 -100.000000 -300.000000 0.648999 0.701994 0.257396 0.140540
40 1 300.000000 -100.000000 -300.000000 0.411631 0.651784 0.504768 0.388519
41 1 -500.000000 100.000000 -300.000000 0.523279 0.163139 0.584327 0.598437
42 1 -300.000000 100.000000 -300.000000 0.645541 0.496668 0.575167 0.076033
43 1 -100.000000 100.000000 -300.000000 0.696821 0.570637 0.408459 0.148241
44 1 100.000000 100.000000 -300.000000 0.210085 0.522232 0.823958 0.065048
45 1 300.000000 100.000000 -300.000000 0.099910 0.617496 0.584720 0.516546
46 1 -500.000000 300.000000 -300.000000 0.782031 0.224454 0.090701 0.574301
47 1 -300.000000 300.000000 -300.000000 0.242834 0.331854 0.455806 0.789395
48 1 -100.000000 300.000000 -300.000000 0.904041 0.225086 0.358427 0.059801
49 1 100.000000 300.000000 -300.000000 0.610457 0.517389 0.441178 0.406219
50 1 300.000000 300.000000 -300.000000 0.324980 0.396469 0.631152 0.582106
51 1 -500.000000 -500.000000 -100.000000 0.605484 0.586783 0.066061 0.533583
52 1 -300.000000 -500.000000 -100.000000 0.403914 0.846023 0.345308 0.043146
53 1 -100.000000 -500.000000 -100.000000 0.838218 0.327806 0.429732 0.072556
54 1 100.000000 -500.000000 -100.000000 0.458038 0.612320 0.557768 0.322738
55 1 300.000000 -500.000000 -100.000000 0.034516 0.779555 0.154134 0.606090
56 1 -500.000000 -300.000000 -100.000000 0.731697 0.413298 0.128379 0.526614
57 1 -300.000000 -300.000000 -100.000000 0.062737 0.148378 0.981869 0.099906
58 1 -100.000000 -300.000000 -100.000000 0.447712 0.099695 0.854810 0.242723
59 1 100.000000 -300.000000 -100.000000 0.204168 0.530542 0.716803 0.403775
60 1 300.000000 -300.000000 -100.000000 0.519671 0.498618 0.628175 0.294479
61 1 -500.000000 -100.000000 -100.000000 0.205074 0.553142 0.195307 0.783476
62 1 -300.000000 -100.000000 -100.000000 0.038374 0.633101 0.128174 0.762419
63 1 -100.000000 -100.000000 -100.000000 0.309831 0.605039 0.114523 0.724442
64 1 100.000000 -100.000000 -100.000000 0.636590 0.093489 0.462871 0.609724
65 1 300.000000 -100.000000 -100.000000 0.600552 0.166566 0.621654 0.474489
