LAMMPS data file

60 atoms
60 ellipsoids
0 bonds
0 angles
0 dihedrals

1 atom types
0 bond types
0 angle types
0 dihedral types

-500.000000 500.000000 xlo xhi
-500.000000 500.000000 ylo yhi
-500.000000 500.000000 zlo zhi

Masses

1 203166.000000

Atoms

1 1 -500.000000 -500.000000 -500.000000 1 1.000000 3 0.000000
2 1 -250.000000 -500.000000 -500.000000 1 1.000000 4 0.000000
3 1 0.000000 -500.000000 -500.000000 1 1.000000 5 0.000000
4 1 250.000000 -500.000000 -500.000000 1 1.000000 6 0.000000
5 1 -500.000000 -250.000000 -500.000000 1 1.000000 7 0.000000
6 1 -250.000000 -250.000000 -500.000000 1 1.000000 8 0.000000
7 1 0.000000 -250.000000 -500.000000 1 1.000000 9 0.000000
8 1 250.000000 -250.000000 -500.000000 1 1.000000 10 0.000000
9 1 -500.000000 0.000000 -500.000000 1 1.000000 11 0.000000
10 1 -250.000000 0.000000 -500.000000 1 1.000000 12 0.000000
11 1 0.000000 0.000000 -500.000000 1 1.000000 13 0.000000
12 1 250.000000 0.000000 -500.000000 1 1.000000 14 0.000000
13 1 -500.000000 250.000000 -500.000000 1 1.000000 15 0.000000
14 1 -250.000000 250.000000 -500.000000 1 1.000000 16 0.000000
15 1 0.000000 250.000000 -500.000000 1 1.000000 17 0.000000
16 1 250.000000 250.000000 -500.000000 1 1.000000 18 0.000000
17 1 -500.000000 -500.000000 -250.000000 1 1.000000 19 0.000000
18 1 -250.000000 -500.000000 -250.000000 1 1.000000 20 0.000000
19 1 0.000000 -500.000000 -250.000000 1 1.000000 21 0.000000
20 1 250.000000 -500.000000 -250.000000 1 1.000000 22 0.000000
21 1 -500.000000 -250.000000 -250.000000 1 1.000000 23 0.000000
22 1 -250.000000 -250.000000 -250.000000 1 1.000000 24 0.000000
23 1 0.000000 -250.000000 -250.000000 1 1.000000 25 0.000000
24 1 250.000000 -250.000000 -250.000000 1 1.000000 26 0.000000
25 1 -500.000000 0.000000 -250.000000 1 1.000000 27 0.000000
26 1 -250.000000 0.000000 -250.000000 1 1.000000 28 0.000000
27 1 0.000000 0.000000 -250.000000 1 1.000000 29 0.000000
28 1 250.000000 0.000000 -250.000000 1 1.000000 30 0.000000
29 1 -500.000000 250.000000 -250.000000 1 1.000000 31 0.000000
30 1 -250.000000 250.000000 -250.000000 1 1.000000 32 0.000000
31 1 0.000000 250.000000 -250.000000 1 1.000000 33 0.000000
32 1 250.000000 250.000000 -250.000000 1 1.000000 34 0.000000
33 1 -500.000000 -500.000000 0.000000 1 1.000000 35 0.000000
34 1 -250.000000 -500.000000 0.000000 1 1.000000 36 0.000000
35 1 0.000000 -500.000000 0.000000 1 1.000000 37 0.000000
36 1 250.000000 -500.000000 0.000000 1 1.000000 38 0.000000
37 1 -500.000000 -250.000000 0.000000 1 1.000000 39 0.000000
38 1 -250.000000 -250.000000 0.000000 1 1.000000 40 0.000000
39 1 0.000000 -250.000000 0.000000 1 1.000000 41 0.000000
40 1 250.000000 -250.000000 0.000000 1 1.000000 42 0.000000
41 1 -500.000000 0.000000 0.000000 1 1.000000 43 0.000000
42 1 -250.000000 0.000000 0.000000 1 1.000000 44 0.000000
43 1 0.000000 0.000000 0.000000 1 1.000000 45 0.000000
44 1 250.000000 0.000000 0.000000 1 1.000000 46 0.000000
45 1 -500.000000 250.000000 0.000000 1 1.000000 47 0.000000
46 1 -250.000000 250.000000 0.000000 1 1.000000 48 0.000000
47 1 0.000000 250.000000 0.000000 1 1.000000 49 0.000000
48 1 250.000000 250.000000 0.000000 1 1.000000 50 0.000000
49 1 -500.000000 -500.000000 250.000000 1 1.000000 51 0.000000
50 1 -250.000000 -500.000000 250.000000 1 1.000000 52 0.000000
51 1 0.000000 -500.000000 250.000000 1 1.000000 53 0.000000
52 1 250.000000 -500.000000 250.000000 1 1.000000 54 0.000000
53 1 -500.000000 -250.000000 250.000000 1 1.000000 55 0.000000
54 1 -250.000000 -250.000000 250.000000 1 1.000000 56 0.000000
55 1 0.000000 -250.000000 250.000000 1 1.000000 57 0.000000
56 1 250.000000 -250.000000 250.000000 1 1.000000 58 0.000000
57 1 -500.000000 0.000000 250.000000 1 1.000000 59 0.000000
58 1 -250.000000 0.000000 250.000000 1 1.000000 60 0.000000
59 1 0.000000 0.000000 250.000000 1 1.000000 61 0.000000
60 1 250.000000 0.000000 250.000000 1 1.000000 62 0.000000

Ellipsoids

1 55.000000 110.000000 110.000000 0.524549 0.609912 0.513463 0.298683
2 55.000000 110.000000 110.000000 0.137672 0.045498 0.880878 0.450590
3 55.000000 110.000000 110.000000 0.216567 0.608842 0.682572 0.341331
4 55.000000 110.000000 110.000000 0.200712 0.701070 0.663849 0.165894
5 55.000000 110.000000 110.000000 0.608521 0.590977 0.528829 0.028083
6 55.000000 110.000000 110.000000 0.419313 0.015470 0.893930 0.157567
7 55.000000 110.000000 110.000000 0.212464 0.279801 0.425110 0.834177
8 55.000000 110.000000 110.000000 0.674634 0.374045 0.596506 0.221673
9 55.000000 110.000000 110.000000 0.214641 0.360595 0.837176 0.350767
10 55.000000 110.000000 110.000000 0.414111 0.534140 0.278126 0.682534
11 55.000000 110.000000 110.000000 0.597706 0.511701 0.542496 0.294293
12 55.000000 110.000000 110.000000 0.403832 0.228917 0.659993 0.590699
13 55.000000 110.000000 110.000000 0.404063 0.705461 0.046847 0.580399
14 55.000000 110.000000 110.000000 0.716473 0.424651 0.037115 0.552232
15 55.000000 110.000000 110.000000 0.830553 0.056513 0.268580 0.484616
16 55.000000 110.000000 110.000000 0.796555 0.485524 0.183335 0.310089
17 55.000000 110.000000 110.000000 0.298787 0.687207 0.064709 0.659004
18 55.000000 110.000000 110.000000 0.406239 0.704791 0.521304 0.257843
19 55.000000 110.000000 110.000000 0.562866 0.464493 0.493760 0.472896
20 55.000000 110.000000 110.000000 0.390469 0.137638 0.891613 0.183346
21 55.000000 110.000000 110.000000 0.075690 0.878432 0.223171 0.415720
22 55.000000 110.000000 110.000000 0.695860 0.382696 0.275346 0.541763
23 55.000000 110.000000 110.000000 0.517157 0.289909 0.546249 0.591704
24 55.000000 110.000000 110.000000 0.444177 0.055329 0.684463 0.575462
25 55.000000 110.000000 110.000000 0.667505 0.532575 0.244009 0.459630
26 55.000000 110.000000 110.000000 0.771213 0.362379 0.487740 0.189791
27 55.000000 110.000000 110.000000 0.646193 0.629023 0.249651 0.352759
28 55.000000 110.000000 110.000000 0.745522 0.640914 0.115435 0.141777
29 55.000000 110.000000 110.000000 0.471164 0.878945 0.027402 0.068615
30 55.000000 110.000000 110.000000 0.407392 0.851868 0.176637 0.277763
31 55.000000 110.000000 110.000000 0.779196 0.200225 0.593786 0.013503
32 55.000000 110.000000 110.000000 0.586234 0.481461 0.332383 0.560399
33 55.000000 110.000000 110.000000 0.308452 0.313600 0.572432 0.691978
34 55.000000 110.000000 110.000000 0.237469 0.262157 0.858598 0.371068
35 55.000000 110.000000 110.000000 0.300074 0.316287 0.423758 0.793944
36 55.000000 110.000000 110.000000 0.589599 0.087832 0.206144 0.775991
37 55.000000 110.000000 110.000000 0.202918 0.108537 0.136731 0.963508
38 55.000000 110.000000 110.000000 0.013361 0.507156 0.566633 0.649262
39 55.000000 110.000000 110.000000 0.615592 0.567972 0.464816 0.287055
40 55.000000 110.000000 110.000000 0.524813 0.493947 0.692109 0.039647
41 55.000000 110.000000 110.000000 0.786428 0.584257 0.067412 0.188760
42 55.000000 110.000000 110.000000 0.073161 0.643357 0.172142 0.742366
43 55.000000 110.000000 110.000000 0.618852 0.706639 0.208339 0.272540
44 55.000000 110.000000 110.000000 0.397870 0.379213 0.351777 0.757727
45 55.000000 110.000000 110.000000 0.310419 0.192836 0.152548 0.918250
46 55.000000 110.000000 110.000000 0.029750 0.104175 0.084722 0.990497
47 55.000000 110.000000 110.000000 0.706844 0.454022 0.149350 0.521470
48 55.000000 110.000000 110.000000 0.665269 0.655592 0.293807 0.203211
49 55.000000 110.000000 110.000000 0.238011 0.434673 0.606720 0.621531
50 55.000000 110.000000 110.000000 0.003702 0.773864 0.353759 0.525334
51 55.000000 110.000000 110.000000 0.490096 0.475229 0.663790 0.305525
52 55.000000 110.000000 110.000000 0.651458 0.243109 0.718385 0.020550
53 55.000000 110.000000 110.000000 0.085747 0.751556 0.576087 0.309733
54 55.000000 110.000000 110.000000 0.126550 0.877824 0.287752 0.361399
55 55.000000 110.000000 110.000000 0.594955 0.137400 0.633683 0.474970
56 55.000000 110.000000 110.000000 0.604285 0.756040 0.106805 0.227674
57 55.000000 110.000000 110.000000 0.459574 0.550414 0.495158 0.490566
58 55.000000 110.000000 110.000000 0.283992 0.359056 0.659941 0.595739
59 55.000000 110.000000 110.000000 0.433366 0.831145 0.348239 0.011002
60 55.000000 110.000000 110.000000 0.251864 0.840601 0.403245 0.259513




