ITEM: TIMESTEP
0
ITEM: NUMBER OF ATOMS
55
ITEM: BOX BOUNDS
-500.000000 500.000000
-500.000000 500.000000
-500.000000 500.000000
ITEM: ATOMS id type x y z c_q[1] c_q[2] c_q[3] c_q[4]
1 1 -500.000000 -500.000000 -500.000000 0.760009 0.222285 0.110349 0.600665
2 1 -250.000000 -500.000000 -500.000000 0.462226 0.612128 0.638174 0.066183
3 1 0.000000 -500.000000 -500.000000 0.240406 0.731728 0.490172 0.408056
4 1 250.000000 -500.000000 -500.000000 0.425963 0.612331 0.200171 0.635246
5 1 -500.000000 -250.000000 -500.000000 0.485497 0.531171 0.622310 0.308027
6 1 -250.000000 -250.000000 -500.000000 0.429092 0.494265 0.434705 0.618558
7 1 0.000000 -250.000000 -500.000000 0.060680 0.454545 0.841888 0.284484
8 1 250.000000 -250.000000 -500.000000 0.211417 0.645653 0.305224 0.667288
9 1 -500.000000 0.000000 -500.000000 0.327704 0.688945 0.640975 0.084359
10 1 -250.000000 0.000000 -500.000000 0.593632 0.173911 0.611309 0.493617
11 1 0.000000 0.000000 -500.000000 0.699493 0.599640 0.135308 0.364464
12 1 250.000000 0.000000 -500.000000 0.534128 0.267683 0.721762 0.349446
13 1 -500.000000 250.000000 -500.000000 0.147772 0.569030 0.741321 0.323748
14 1 -250.000000 250.000000 -500.000000 0.078793 0.435725 0.862774 0.244041
15 1 0.000000 250.000000 -500.000000 0.538448 0.422069 0.666125 0.296999
16 1 250.000000 250.000000 -500.000000 0.155554 0.746269 0.304093 0.571326
17 1 -500.000000 -500.000000 -250.000000 0.614732 0.525544 0.467689 0.356616
18 1 -250.000000 -500.000000 -250.000000 0.274374 0.356039 0.197650 0.871143
19 1 0.000000 -500.000000 -250.000000 0.440091 0.782756 0.209093 0.387159
20 1 250.000000 -500.000000 -250.000000 0.006914 0.973404 0.221000 0.059964
21 1 -500.000000 -250.000000 -250.000000 0.421033 0.617696 0.266857 0.608251
22 1 -250.000000 -250.000000 -250.000000 0.565677 0.269554 0.235884 0.742771
23 1 0.000000 -250.000000 -250.000000 0.480200 0.559427 0.407850 0.538616
24 1 250.000000 -250.000000 -250.000000 0.461862 0.314318 0.115013 0.821377
25 1 -500.000000 0.000000 -250.000000 0.564596 0.648142 0.250257 0.445550
26 1 -250.000000 0.000000 -250.000000 0.082105 0.377207 0.819938 0.422699
27 1 0.000000 0.000000 -250.000000 0.370818 0.182679 0.695145 0.588129
28 1 250.000000 0.000000 -250.000000 0.526423 0.426471 0.712423 0.182908
29 1 -500.000000 250.000000 -250.000000 0.596838 0.557723 0.571997 0.074490
30 1 -250.000000 250.000000 -250.000000 0.065164 0.630573 0.202764 0.746337
31 1 0.000000 250.000000 -250.000000 0.608398 0.393807 0.653975 0.216991
32 1 250.000000 250.000000 -250.000000 0.037058 0.717203 0.522070 0.460097
33 1 -500.000000 -500.000000 0.000000 0.298202 0.493463 0.204611 0.791015
34 1 -250.000000 -500.000000 0.000000 0.122206 0.720420 0.650639 0.206711
35 1 0.000000 -500.000000 0.000000 0.627249 0.110009 0.431953 0.638650
36 1 250.000000 -500.000000 0.000000 0.460219 0.513262 0.133810 0.711938
37 1 -500.000000 -250.000000 0.000000 0.580255 0.032323 0.810257 0.075782
38 1 -250.000000 -250.000000 0.000000 0.585237 0.798826 0.138023 0.017984
39 1 0.000000 -250.000000 0.000000 0.562717 0.566818 0.537474 0.270534
40 1 250.000000 -250.000000 0.000000 0.145245 0.368475 0.092200 0.913580
41 1 -500.000000 0.000000 0.000000 0.478325 0.102575 0.866911 0.095649
42 1 -250.000000 0.000000 0.000000 0.634480 0.423748 0.507207 0.400767
43 1 0.000000 0.000000 0.000000 0.089112 0.121873 0.986644 0.061159
44 1 250.000000 0.000000 0.000000 0.526848 0.558262 0.626747 0.134023
45 1 -500.000000 250.000000 0.000000 0.124031 0.896235 0.172485 0.389394
46 1 -250.000000 250.000000 0.000000 0.447982 0.221914 0.859629 0.105372
47 1 0.000000 250.000000 0.000000 0.270472 0.375974 0.705065 0.537002
48 1 250.000000 250.000000 0.000000 0.091311 0.157888 0.982098 0.047079
49 1 -500.000000 -500.000000 250.000000 0.560380 0.591424 0.516537 0.263404
50 1 -250.000000 -500.000000 250.000000 0.452822 0.802938 0.025321 0.386784
51 1 0.000000 -500.000000 250.000000 0.841948 0.214043 0.197448 0.454229
52 1 250.000000 -500.000000 250.000000 0.246410 0.489272 0.826669 0.128501
53 1 -500.000000 -250.000000 250.000000 0.369140 0.453820 0.614708 0.529072
54 1 -250.000000 -250.000000 250.000000 0.308286 0.108561 0.848823 0.415540
55 1 0.000000 -250.000000 250.000000 0.594135 0.074570 0.187928 0.778541
