ITEM: TIMESTEP
0
ITEM: NUMBER OF ATOMS
55
ITEM: BOX BOUNDS pp pp pp
-5.0000000000000000e+02 5.0000000000000000e+02
-5.0000000000000000e+02 5.0000000000000000e+02
-5.0000000000000000e+02 5.0000000000000000e+02
ITEM: ATOMS id type x y z c_q[1] c_q[2] c_q[3] c_q[4] 
1 1 -500 -500 -500 0.760009 0.222285 0.110349 0.600665 
2 1 -250 -500 -500 0.462226 0.612128 0.638174 0.066183 
3 1 0 -500 -500 0.240406 0.731728 0.490172 0.408056 
4 1 250 -500 -500 0.425963 0.612331 0.200171 0.635246 
5 1 -500 -250 -500 0.485497 0.531171 0.62231 0.308027 
6 1 -250 -250 -500 0.429092 0.494265 0.434705 0.618558 
7 1 0 -250 -500 0.06068 0.454545 0.841888 0.284484 
8 1 250 -250 -500 0.211417 0.645653 0.305224 0.667288 
9 1 -500 0 -500 0.327704 0.688945 0.640975 0.084359 
10 1 -250 0 -500 0.593632 0.173911 0.611309 0.493617 
11 1 0 0 -500 0.699493 0.59964 0.135308 0.364464 
12 1 250 0 -500 0.534128 0.267683 0.721762 0.349446 
13 1 -500 250 -500 0.147772 0.56903 0.741321 0.323748 
14 1 -250 250 -500 0.078793 0.435725 0.862774 0.244041 
15 1 0 250 -500 0.538448 0.422069 0.666125 0.296999 
16 1 250 250 -500 0.155554 0.746269 0.304093 0.571326 
17 1 -500 -500 -250 0.614732 0.525544 0.467689 0.356616 
18 1 -250 -500 -250 0.274374 0.356039 0.19765 0.871143 
19 1 0 -500 -250 0.440091 0.782756 0.209093 0.387159 
20 1 250 -500 -250 0.006914 0.973404 0.221 0.059964 
21 1 -500 -250 -250 0.421033 0.617696 0.266857 0.608251 
22 1 -250 -250 -250 0.565677 0.269554 0.235884 0.742771 
23 1 0 -250 -250 0.4802 0.559427 0.40785 0.538616 
24 1 250 -250 -250 0.461862 0.314318 0.115013 0.821377 
25 1 -500 0 -250 0.564596 0.648142 0.250257 0.44555 
26 1 -250 0 -250 0.082105 0.377207 0.819938 0.422699 
27 1 0 0 -250 0.370818 0.182679 0.695145 0.588129 
28 1 250 0 -250 0.526423 0.426471 0.712423 0.182908 
29 1 -500 250 -250 0.596838 0.557723 0.571997 0.07449 
30 1 -250 250 -250 0.065164 0.630573 0.202764 0.746337 
31 1 0 250 -250 0.608398 0.393807 0.653975 0.216991 
32 1 250 250 -250 0.037058 0.717203 0.52207 0.460097 
33 1 -500 -500 0 0.298202 0.493463 0.204611 0.791015 
34 1 -250 -500 0 0.122206 0.72042 0.650639 0.206711 
35 1 0 -500 0 0.627249 0.110009 0.431953 0.63865 
36 1 250 -500 0 0.460219 0.513262 0.13381 0.711938 
37 1 -500 -250 0 0.580255 0.032323 0.810257 0.075782 
38 1 -250 -250 0 0.585237 0.798826 0.138023 0.017984 
39 1 0 -250 0 0.562717 0.566818 0.537474 0.270534 
40 1 250 -250 0 0.145245 0.368475 0.0922 0.91358 
41 1 -500 0 0 0.478325 0.102575 0.866911 0.095649 
42 1 -250 0 0 0.63448 0.423748 0.507207 0.400767 
43 1 0 0 0 0.089112 0.121873 0.986644 0.061159 
44 1 250 0 0 0.526848 0.558262 0.626747 0.134023 
45 1 -500 250 0 0.124031 0.896235 0.172485 0.389394 
46 1 -250 250 0 0.447982 0.221914 0.859629 0.105372 
47 1 0 250 0 0.270472 0.375974 0.705065 0.537002 
48 1 250 250 0 0.091311 0.157888 0.982098 0.047079 
49 1 -500 -500 250 0.56038 0.591424 0.516537 0.263404 
50 1 -250 -500 250 0.452822 0.802938 0.025321 0.386784 
51 1 0 -500 250 0.841948 0.214043 0.197448 0.454229 
52 1 250 -500 250 0.24641 0.489272 0.826669 0.128501 
53 1 -500 -250 250 0.36914 0.45382 0.614708 0.529072 
54 1 -250 -250 250 0.308286 0.108561 0.848823 0.41554 
55 1 0 -250 250 0.594135 0.07457 0.187928 0.778541 
ITEM: TIMESTEP
10000
ITEM: NUMBER OF ATOMS
55
ITEM: BOX BOUNDS pp pp pp
-5.0000000000000000e+02 5.0000000000000000e+02
-5.0000000000000000e+02 5.0000000000000000e+02
-5.0000000000000000e+02 5.0000000000000000e+02
ITEM: ATOMS id type x y z c_q[1] c_q[2] c_q[3] c_q[4] 
1 1 -496.627 -496.871 -497.045 0.71329 0.227775 0.121418 0.651609 
7 1 0.0419552 -247.854 -495.991 0.0728102 0.437386 0.846183 0.29558 
9 1 -499.717 -1.39817 -497.893 0.347449 0.6804 0.639399 0.0866279 
14 1 -249.297 254.09 -499.751 0.0894966 0.434339 0.862275 0.244584 
15 1 -0.784167 244.981 -498.261 0.52748 0.454846 0.658417 0.28525 
17 1 -499.724 -499.934 -250.717 0.623336 0.501644 0.476209 0.364733 
20 1 248.339 -498.825 -244.544 0.0979657 0.979624 0.155761 0.0804921 
21 1 -497.874 -249.205 -248.07 0.453693 0.626902 0.234037 0.588543 
22 1 -251.858 -251.466 -251.483 0.574244 0.262061 0.22862 0.741149 
23 1 -2.83659 -245.708 -246.2 0.534456 0.604487 0.355608 0.471694 
24 1 247.041 -256.428 -255.483 0.424018 0.286238 0.0674174 0.856581 
27 1 -3.10334 -7.0736 -253.676 0.368781 0.148589 0.684401 0.611161 
28 1 250.784 -6.91314 -246.935 0.560286 0.421881 0.690705 0.176134 
25 1 499.46 -0.816474 -248.615 0.549299 0.674557 0.218708 0.442052 
26 1 -247.983 1.62942 -252.239 0.109262 0.342207 0.834123 0.418562 
30 1 -254.178 252.853 -256.063 0.0744325 0.631324 0.158628 0.755465 
31 1 1.11485 246.148 -256.96 0.609342 0.352549 0.655236 0.274004 
32 1 243.494 248.125 -248.676 0.002635 0.706715 0.487737 0.512504 
29 1 -499.876 253.546 -252.739 0.588175 0.5583 0.580461 0.0735956 
18 1 -255.511 495.52 -251.187 0.241063 0.406138 0.193498 0.859942 
19 1 -3.33399 499.03 -247.791 0.401517 0.802789 0.245373 0.366205 
37 1 -499.697 -249.75 -1.6143 0.526571 0.000566971 0.846955 0.0734146 
38 1 -242.72 -246.314 -4.85313 0.572339 0.811669 0.10424 0.0524871 
42 1 -254.818 -1.18264 -1.62499 0.630625 0.399111 0.50015 0.439173 
43 1 -4.16484 1.13712 -1.75799 0.138438 0.13955 0.977888 0.0713811 
34 1 -251.624 498.527 -1.5332 0.136779 0.73271 0.62405 0.234499 
35 1 1.36672 490.339 -2.13884 0.625034 0.12438 0.446826 0.62786 
36 1 252.569 -499.115 0.502527 0.470113 0.553624 0.115157 0.677667 
33 1 497.909 -498.842 0.374367 0.311531 0.427511 0.19431 0.826091 
39 1 -5.62193 -251.393 1.98952 0.625252 0.531109 0.508782 0.261008 
40 1 256.535 -250.181 2.4585 0.130653 0.353195 0.0280052 0.925958 
44 1 250.935 1.69612 6.2436 0.528974 0.551735 0.631489 0.130371 
41 1 499.489 1.098 2.38411 0.461335 0.196257 0.861237 0.0832154 
46 1 -244.703 251.237 3.73889 0.46569 0.211666 0.856118 0.0734357 
47 1 6.52256 252.352 0.840416 0.269505 0.319141 0.725741 0.546641 
48 1 248.932 250.469 5.45268 0.078377 0.169287 0.981127 0.0508844 
45 1 498.456 246.178 3.21699 0.140404 0.895974 0.155941 0.391407 
49 1 -497.719 -494.725 252.971 0.529383 0.585385 0.544164 0.284543 
51 1 -2.88249 -496.769 254.46 0.832052 0.195688 0.237559 0.461477 
54 1 -257.875 -248.126 248.178 0.306386 0.134666 0.849718 0.407397 
55 1 0.143243 -250.076 253.869 0.606205 0.0996095 0.179515 0.768354 
53 1 499.786 -249.699 252.306 0.413465 0.443928 0.606433 0.514017 
50 1 -250.802 -499.398 251.252 0.442802 0.80652 0.0248832 0.390939 
52 1 250.198 495.16 251.281 0.25039 0.471787 0.831726 0.151501 
2 1 -245.266 -498.165 495.879 0.424451 0.611533 0.66723 0.0259225 
3 1 3.79386 498.279 497.297 0.24472 0.750621 0.462861 0.403038 
4 1 246.721 499.614 497.633 0.40382 0.587068 0.281767 0.642563 
5 1 -498.766 -250.209 496.73 0.485149 0.468332 0.631879 0.382132 
6 1 -250.801 -254.119 498.198 0.425355 0.500852 0.477353 0.583399 
8 1 251.208 -244.488 498.404 0.184391 0.647953 0.309276 0.671198 
10 1 -248.055 5.08715 497.674 0.558137 0.181534 0.620337 0.520299 
11 1 5.60263 0.939146 498.012 0.708751 0.587905 0.116003 0.372268 
12 1 252.603 7.29564 499.809 0.44893 0.303462 0.748836 0.381599 
16 1 245.728 256.072 498.555 0.154555 0.776975 0.298069 0.532521 
13 1 497.263 247.991 497.995 0.158508 0.532903 0.751114 0.355973 
ITEM: TIMESTEP
20000
ITEM: NUMBER OF ATOMS
55
ITEM: BOX BOUNDS pp pp pp
-5.0000000000000000e+02 5.0000000000000000e+02
-5.0000000000000000e+02 5.0000000000000000e+02
-5.0000000000000000e+02 5.0000000000000000e+02
ITEM: ATOMS id type x y z c_q[1] c_q[2] c_q[3] c_q[4] 
1 1 -495.381 -497.957 -496.102 0.72291 0.151462 0.064802 0.671015 
7 1 -1.17618 -243.556 -495.246 0.0865612 0.417089 0.861619 0.275966 
8 1 256.324 -240.492 -498.17 0.204047 0.637367 0.32092 0.670178 
5 1 499.342 -255.928 499.799 0.437244 0.472779 0.646562 0.408968 
9 1 -495.463 -5.07667 -494.964 0.349955 0.701726 0.615295 0.0807713 
10 1 -246.688 6.22289 -499.421 0.542074 0.22796 0.627469 0.510365 
12 1 254.069 9.4319 -498.751 0.471835 0.327245 0.724747 0.38082 
14 1 -252.889 253.097 -497.955 0.100354 0.438278 0.844719 0.29033 
3 1 8.71493 498.746 -495.446 0.262035 0.741739 0.414845 0.457236 
17 1 -498.196 -496.447 -256.405 0.644977 0.487793 0.43348 0.397691 
22 1 -248.514 -253.766 -250.064 0.561935 0.247466 0.248478 0.749165 
23 1 -2.13054 -243.785 -251.395 0.524838 0.619226 0.362708 0.457763 
24 1 241.764 -257.104 -254.785 0.408068 0.336217 0.0797482 0.845032 
21 1 498.786 -252.014 -248.859 0.487464 0.601699 0.226858 0.590654 
27 1 -0.512441 -9.42461 -249.676 0.376824 0.0871702 0.679052 0.623934 
28 1 249.796 -6.57586 -247.76 0.567222 0.389149 0.696679 0.203618 
26 1 -246.041 2.76121 -251.448 0.129797 0.344697 0.815246 0.44689 
25 1 498.106 1.54856 -247.977 0.552758 0.646769 0.211568 0.481027 
29 1 -498.834 253.472 -250.39 0.574002 0.568236 0.585764 0.0671599 
30 1 -259.109 260.818 -251.573 0.099122 0.628292 0.123322 0.761719 
31 1 1.61424 246.951 -262.144 0.586003 0.394678 0.673489 0.217354 
32 1 239.901 247.467 -248.523 0.00435009 0.726481 0.486799 0.485009 
18 1 -254.703 498.121 -251.305 0.271023 0.428242 0.192792 0.84023 
19 1 -1.09737 499.593 -255.43 0.352785 0.819209 0.287365 0.349086 
20 1 249.487 496.974 -243.66 0.0556176 0.971752 0.219072 0.0679068 
34 1 -253.608 -497.635 -3.0043 0.136493 0.713387 0.625173 0.28567 
36 1 250.814 -495.176 -0.567321 0.450425 0.574232 0.144824 0.668133 
33 1 495.546 -497.623 -2.78066 0.352988 0.340664 0.181389 0.852317 
38 1 -241.048 -246.039 -5.3775 0.56532 0.820792 0.0718469 0.0393883 
39 1 -4.39919 -253.017 -5.45134 0.631359 0.526622 0.531075 0.204977 
37 1 496.001 -254.88 -7.80493 0.544483 -0.0315021 0.830681 0.111873 
42 1 -253.929 -3.21054 0.795071 0.583147 0.381924 0.537021 0.475061 
47 1 4.38531 251.269 -0.290936 0.247594 0.287991 0.758822 0.529101 
35 1 -5.53197 489.773 -2.10734 0.610928 0.145769 0.474556 0.616697 
40 1 257.383 -252.466 1.60146 0.156743 0.338458 0.0712867 0.925093 
41 1 494.242 -0.976161 0.746108 0.440976 0.207853 0.869515 0.079251 
43 1 -9.16867 5.56126 1.07944 0.0857681 0.113774 0.985938 0.0873266 
44 1 252.803 7.11062 5.8151 0.567555 0.564515 0.580974 0.147217 
46 1 -243.821 251.36 1.14807 0.481114 0.153414 0.861314 0.0559639 
48 1 246.524 252.049 9.24711 0.0956092 0.16875 0.980851 0.0177173 
45 1 495.893 249.205 4.46965 0.145862 0.898109 0.209323 0.358203 
49 1 -494.192 -492.026 253.13 0.548384 0.581378 0.52323 0.295813 
50 1 -250.87 -495.396 253.912 0.440986 0.813193 0.0025556 0.379792 
54 1 -262.146 -252.908 246.292 0.268259 0.169212 0.866011 0.386561 
55 1 -3.20025 -253.518 252.381 0.645596 0.12136 0.187752 0.730224 
53 1 -499.861 -246.333 253.199 0.452169 0.418935 0.592341 0.518815 
51 1 -1.8997 -499.688 259.732 0.826963 0.246721 0.232703 0.448453 
52 1 247.618 494.274 253.973 0.227203 0.517656 0.816184 0.119395 
6 1 -250.269 -250.132 495.836 0.437063 0.491627 0.454186 0.600828 
11 1 2.50735 1.92289 -500.023 0.686028 0.611889 0.138627 0.368429 
15 1 2.10072 242.743 495.526 0.556018 0.46698 0.646996 0.232744 
16 1 249.065 250.317 496.528 0.16741 0.773447 0.296943 0.534395 
13 1 491.373 246.941 497.437 0.183066 0.496543 0.752113 0.392757 
2 1 -246.234 499.041 491.547 0.425882 0.597033 0.679266 0.0278158 
4 1 246.486 497.988 498.199 0.422738 0.557635 0.283219 0.655838 
ITEM: TIMESTEP
30000
ITEM: NUMBER OF ATOMS
55
ITEM: BOX BOUNDS pp pp pp
-5.0000000000000000e+02 5.0000000000000000e+02
-5.0000000000000000e+02 5.0000000000000000e+02
-5.0000000000000000e+02 5.0000000000000000e+02
ITEM: ATOMS id type x y z c_q[1] c_q[2] c_q[3] c_q[4] 
1 1 -492.131 -498.644 -493.306 0.719409 0.189286 0.076633 0.663889 
3 1 6.19481 -499.29 -497.774 0.24164 0.763646 0.42924 0.417383 
5 1 -499.481 -257.45 -496.861 0.474853 0.485029 0.625244 0.385138 
7 1 0.694568 -246.235 -495.611 0.119808 0.441308 0.836714 0.301335 
8 1 256.399 -238.064 -497.944 0.150004 0.640224 0.36257 0.660421 
9 1 -489.512 -14.0383 -490.823 0.363377 0.68648 0.623404 0.089832 
10 1 -249.614 6.37675 -499.431 0.529257 0.223915 0.607284 0.548594 
13 1 493.504 246.879 -494.786 0.19001 0.54265 0.729285 0.370904 
17 1 -495.421 -495.491 -256.398 0.680225 0.446681 0.429252 0.391808 
19 1 3.7138 -498.489 -249.538 0.305699 0.851965 0.277502 0.322018 
22 1 -243.884 -249.41 -251.593 0.515951 0.24869 0.237009 0.784713 
23 1 -2.54798 -238.998 -246.243 0.520276 0.618308 0.387051 0.444071 
24 1 246.633 -259.269 -253.106 0.413906 0.288212 0.100195 0.857658 
21 1 499.135 -258.15 -253.562 0.489107 0.639512 0.211417 0.554167 
27 1 1.23226 -9.18481 -251.374 0.36707 0.0905018 0.689251 0.618064 
28 1 245.022 -4.17266 -246.089 0.572331 0.394297 0.691761 0.196045 
26 1 -247.557 5.33883 -252.629 0.165468 0.307318 0.825687 0.44319 
25 1 498.033 4.25966 -249.05 0.584108 0.635325 0.244355 0.44212 
30 1 -254.897 257.688 -253.047 0.124362 0.655236 0.0994674 0.738449 
31 1 0.198458 242.295 -262.709 0.563199 0.388638 0.697564 0.212537 
32 1 241.817 248.023 -252.463 0.0220597 0.724033 0.497067 0.477718 
29 1 493.8 250.391 -248.112 0.566465 0.579578 0.583701 0.0499976 
18 1 -254.559 495.028 -253.468 0.272919 0.47121 0.17117 0.821083 
20 1 247.644 498.445 -244.088 0.0344585 0.970014 0.229582 0.071961 
34 1 -251.619 -496.252 -7.06276 0.151639 0.710074 0.634682 0.264536 
36 1 254.018 -496.014 -2.48154 0.472788 0.551139 0.144559 0.672176 
38 1 -240.044 -240.492 -11.0718 0.569275 0.811199 0.132319 0.0193452 
39 1 -7.04673 -258.373 -7.64613 0.585749 0.537586 0.561019 0.230559 
37 1 495.078 -255.1 -8.34238 0.522498 0.000964122 0.841797 0.135544 
43 1 -11.0844 3.89532 -1.06658 0.0917186 0.0219587 0.994324 0.0492437 
46 1 -247.074 251.61 -4.52858 0.465208 0.167505 0.868424 0.0369208 
47 1 5.01676 250.441 -7.85319 0.233847 0.304481 0.771996 0.506585 
45 1 493.006 241.273 -3.76701 0.139755 0.877457 0.216076 0.404782 
35 1 -4.52911 490.823 -5.77936 0.578741 0.210764 0.503977 0.605512 
33 1 495.449 497.531 -2.29391 0.360449 0.35982 0.171603 0.843302 
40 1 265.878 -259.68 3.94204 0.147248 0.319371 0.0752933 0.933087 
42 1 -251.279 -3.3122 0.901174 0.580504 0.366245 0.541498 0.485448 
41 1 491.241 -1.23563 3.00359 0.472326 0.202389 0.856489 0.0487173 
44 1 255.071 9.5846 5.98677 0.549682 0.582373 0.574983 0.167588 
48 1 252.514 252.852 10.9048 0.0491415 0.136087 0.989392 0.0129805 
49 1 -491.803 -492.533 251.262 0.524811 0.628238 0.517594 0.248972 
50 1 -247.951 -496.735 255.95 0.44388 0.800471 -0.00177245 0.402758 
53 1 -494.927 -248.327 252.684 0.453614 0.432489 0.575765 0.525055 
54 1 -263.603 -255.983 242.23 0.242011 0.189756 0.877749 0.367397 
55 1 -4.63706 -248.218 252.795 0.615473 0.144094 0.195534 0.749798 
51 1 -7.78424 498.498 259.531 0.794796 0.288806 0.254851 0.468979 
52 1 247.888 495.866 252.91 0.209443 0.519852 0.825529 0.06625 
6 1 -250.123 -248.4 494.034 0.428693 0.539324 0.480516 0.542639 
11 1 7.42807 -6.18318 498.999 0.707265 0.572594 0.152202 0.385677 
12 1 251.793 10.4367 496.108 0.512741 0.328281 0.702716 0.36813 
14 1 -253.219 253.785 497.706 0.110676 0.441561 0.843299 0.285696 
15 1 7.21472 245.167 490.076 0.576668 0.495146 0.622876 0.185231 
16 1 246.668 257.266 497.02 0.14972 0.771687 0.283213 0.54943 
2 1 -242.982 497.449 489.003 0.416344 0.575299 0.702368 0.048655 
4 1 248.098 498.662 493.896 0.455065 0.566634 0.197445 0.657919 
ITEM: TIMESTEP
40000
ITEM: NUMBER OF ATOMS
55
ITEM: BOX BOUNDS pp pp pp
-5.0000000000000000e+02 5.0000000000000000e+02
-5.0000000000000000e+02 5.0000000000000000e+02
-5.0000000000000000e+02 5.0000000000000000e+02
ITEM: ATOMS id type x y z c_q[1] c_q[2] c_q[3] c_q[4] 
1 1 -495.508 -492.331 -492.577 0.73301 0.210696 0.107126 0.637831 
7 1 2.45251 -251.084 -491.908 0.0210644 0.477328 0.823601 0.305606 
8 1 254.219 -235.937 -498.365 0.124627 0.636714 0.371728 0.663989 
9 1 -493.272 -10.7099 -499.512 0.322578 0.703191 0.631552 0.0510706 
14 1 -254.331 256.195 -495.818 0.15235 0.443278 0.8201 0.328223 
13 1 493.017 238.302 -499.034 0.168745 0.557396 0.746351 0.322172 
3 1 6.71408 495.715 -494.693 0.253051 0.7897 0.419385 0.369399 
17 1 -495.527 -490.052 -254.24 0.693021 0.432625 0.451427 0.358847 
19 1 9.49712 -497.354 -250.956 0.288796 0.862503 0.31862 0.266771 
22 1 -244.659 -246.083 -242.141 0.513628 0.198808 0.161763 0.818838 
23 1 -4.22456 -237.39 -243.855 0.508376 0.640732 0.386725 0.425981 
24 1 244.607 -265.275 -261.344 0.362818 0.30599 0.112986 0.872907 
21 1 499.665 -255.996 -248.917 0.476569 0.650772 0.170356 0.566001 
27 1 -5.55333 -10.2969 -248.512 0.397657 0.108423 0.677147 0.609579 
28 1 245.932 -8.27106 -242.087 0.572803 0.393581 0.692714 0.192712 
26 1 -245.917 7.39157 -252.552 0.183749 0.321854 0.813236 0.448658 
25 1 495.516 6.2364 -245.455 0.567949 0.622301 0.271944 0.464996 
30 1 -253.327 255.767 -253.895 0.139653 0.632028 0.0557599 0.760217 
31 1 4.46785 250.342 -265.962 0.558166 0.403977 0.68757 0.229131 
32 1 242.316 246.406 -251.525 0.0361554 0.743121 0.460306 0.484337 
29 1 489.478 250.155 -244.016 0.576304 0.598408 0.554429 0.0488904 
18 1 -255.345 492.519 -247.841 0.292272 0.495169 0.166142 0.801113 
20 1 249.879 495.789 -241.149 0.0615724 0.968914 0.235026 0.0466538 
34 1 -246.337 -492.236 -12.2198 0.107717 0.703375 0.646058 0.276172 
36 1 257.771 -495.056 -2.1774 0.436706 0.587095 0.141606 0.666749 
38 1 -235.3 -244.863 -10.7529 0.585864 0.80095 0.117031 0.0393076 
39 1 -8.58971 -258.185 -5.71621 0.59468 0.597234 0.498512 0.202864 
37 1 496.234 -257.516 -12.4087 0.557951 0.0623762 0.818925 0.119001 
43 1 -8.29941 10.9539 -3.14638 0.0852089 0.0314526 0.994273 0.0563151 
46 1 -247.221 245.787 -1.81179 0.507603 0.191427 0.839488 0.030885 
47 1 2.57304 253.393 -6.66933 0.19365 0.322948 0.752105 0.540871 
45 1 492.826 237.177 -4.23484 0.161509 0.886627 0.20223 0.383289 
35 1 3.99542 492.849 -5.04745 0.586261 0.175828 0.493053 0.618289 
33 1 497.46 -498.353 -2.19709 0.349168 0.356232 0.169059 0.850058 
40 1 260.793 -263.201 8.18981 0.153814 0.31387 0.0738955 0.934006 
41 1 491.128 -0.944267 5.90369 0.448799 0.234676 0.861192 0.0430673 
42 1 -252.065 0.891558 1.40215 0.611908 0.35637 0.511101 0.487181 
44 1 255.041 7.50569 9.57655 0.527295 0.576288 0.594382 0.191214 
48 1 250.758 253.852 11.3807 0.0352327 0.114524 0.992656 0.0166197 
49 1 -491.384 -490.185 246.768 0.543193 0.623124 0.501248 0.255749 
50 1 -246.604 -495.024 256.014 0.446229 0.813581 -0.0138314 0.372523 
51 1 -5.54228 -497.493 261.19 0.789413 0.317359 0.288235 0.439352 
53 1 -495.654 -250.963 250.596 0.497569 0.423615 0.543723 0.526631 
54 1 -264.989 -258.327 237.504 0.251356 0.151235 0.862051 0.4133 
55 1 -7.39708 -246.981 261.753 0.625479 0.116444 0.177382 0.750835 
52 1 246.624 492.831 254.139 0.229975 0.497408 0.835627 0.0377335 
5 1 -499.177 -258.326 498.738 0.46085 0.482868 0.650275 0.362764 
6 1 -255.048 -250.237 495.635 0.486409 0.534048 0.463214 0.513451 
11 1 11.9058 0.959328 494.203 0.701903 0.570431 0.188638 0.382566 
10 1 -247.558 7.81955 500.094 0.539664 0.227804 0.589449 0.556253 
12 1 251.066 10.1384 498.193 0.544046 0.315907 0.705846 0.325573 
15 1 5.84057 241.195 490.843 0.605374 0.480591 0.597393 0.213719 
16 1 252.426 258.228 497.863 0.144249 0.774424 0.280342 0.548514 
2 1 -239.059 496.107 483.785 0.429134 0.514413 0.73942 0.0669496 
4 1 247.559 499.637 496.862 0.455214 0.588846 0.256415 0.616678 
ITEM: TIMESTEP
50000
ITEM: NUMBER OF ATOMS
55
ITEM: BOX BOUNDS pp pp pp
-5.0000000000000000e+02 5.0000000000000000e+02
-5.0000000000000000e+02 5.0000000000000000e+02
-5.0000000000000000e+02 5.0000000000000000e+02
ITEM: ATOMS id type x y z c_q[1] c_q[2] c_q[3] c_q[4] 
1 1 -498.585 500.063 -488.312 0.78536 0.218927 0.0712112 0.574639 
7 1 5.04936 -253.118 -494.588 0.0219353 0.505586 0.810199 0.295769 
8 1 250.481 -240.555 -498.425 0.136418 0.655539 0.345496 0.657488 
5 1 496.533 -252.489 499.731 0.43956 0.494608 0.638513 0.393003 
14 1 -252.926 256.247 -493.17 0.140672 0.414834 0.826858 0.352746 
16 1 248.959 259.238 -496.246 0.102547 0.795624 0.264167 0.535427 
3 1 3.30451 493.82 -495.43 0.249408 0.840821 0.384529 0.288016 
17 1 -498.453 -488.305 -251.053 0.707099 0.403359 0.458437 0.356578 
19 1 12.3735 -493.541 -256.281 0.346324 0.853696 0.265616 0.284096 
22 1 -250.494 -247.373 -243.904 0.506872 0.193438 0.193456 0.817458 
23 1 -3.36619 -237.929 -246.785 0.507348 0.603616 0.41451 0.454342 
24 1 243.994 -263.025 -266.009 0.351286 0.31836 0.122682 0.871891 
21 1 499.66 -254.076 -243.818 0.476988 0.665359 0.187484 0.542798 
27 1 -2.09814 -12.3771 -249.705 0.328435 0.0960285 0.679675 0.648808 
28 1 245.665 -7.34275 -241.466 0.562022 0.401955 0.706802 0.151639 
26 1 -242.757 13.0103 -252.148 0.173943 0.333341 0.811301 0.44768 
25 1 495.617 3.90635 -245.977 0.548344 0.618942 0.258034 0.499648 
30 1 -255.939 260.938 -251.136 0.148613 0.613672 0.039674 0.774433 
31 1 1.00094 250.304 -269.398 0.557486 0.380426 0.709172 0.203863 
32 1 241.445 241.849 -253.121 0.00220013 0.724246 0.445766 0.526075 
29 1 492.914 253.142 -247.763 0.576324 0.593837 0.561434 -8.56799e-05 
18 1 -251.053 490.093 -248.077 0.302034 0.498871 0.179233 0.792325 
20 1 248.95 493.605 -233.621 0.057441 0.971226 0.22832 0.0359347 
34 1 -250.917 -485.058 -14.9615 0.143929 0.714647 0.623154 0.283274 
36 1 258.898 -498.559 -4.03105 0.421385 0.573102 0.112169 0.693835 
37 1 -497.12 -259.712 -8.57725 0.616688 0.0748835 0.765564 0.167332 
38 1 -232.069 -244.588 -10.1022 0.576889 0.805281 0.13619 0.0131867 
39 1 -8.17823 -259.623 -8.28089 0.584748 0.604231 0.51777 0.157761 
43 1 -5.25354 10.7221 0.73141 0.0617708 0.0299944 0.995237 0.0692026 
46 1 -248.804 245.199 -1.64107 0.458065 0.24937 0.85195 0.0466063 
47 1 1.47404 244.456 -6.04757 0.21974 0.323096 0.748624 0.535616 
45 1 499.597 234.959 -5.92632 0.131992 0.870046 0.197246 0.432079 
33 1 -498.012 498.191 -4.88748 0.369896 0.380627 0.169822 0.830338 
35 1 2.07767 490.658 -8.75157 0.580762 0.214369 0.502846 0.603247 
40 1 257.008 -259.432 15.3792 0.153074 0.321007 0.085591 0.930697 
42 1 -252.835 -6.77722 -0.352285 0.620763 0.358491 0.519532 0.464999 
41 1 490.928 -0.201355 2.82541 0.431341 0.229279 0.870232 0.0638152 
44 1 252.778 6.08918 10.3252 0.515779 0.573128 0.60891 0.186346 
48 1 253.106 256.201 11.0336 0.055154 0.137737 0.988436 0.0313298 
49 1 -493.179 -489.306 250.466 0.561518 0.596862 0.510732 0.260012 
50 1 -249.995 -492.317 252.089 0.413217 0.827114 -0.0289519 0.379863 
51 1 -6.12612 -497.861 260.979 0.785671 0.325726 0.287837 0.440197 
53 1 -499.38 -251.189 251.581 0.531756 0.438519 0.478433 0.544094 
54 1 -269.906 -254.235 237.653 0.227013 0.148442 0.868376 0.415154 
55 1 -7.0493 -246.336 257.981 0.640662 0.0737258 0.137761 0.751757 
52 1 243.93 489.147 248.666 0.202234 0.48751 0.844995 0.0861286 
4 1 252.977 -496.98 495.04 0.426242 0.618907 0.325624 0.573795 
6 1 -248.53 -248.421 496.305 0.466697 0.569099 0.459585 0.497094 
9 1 -493.456 -15.3977 495.415 0.307989 0.715039 0.620874 0.0915307 
11 1 10.8412 -3.73466 491.951 0.731885 0.564724 0.125485 0.360116 
10 1 -249.057 12.5535 494.196 0.576374 0.234958 0.557842 0.548999 
12 1 250.764 8.18049 494.228 0.565544 0.3909 0.668837 0.282867 
15 1 6.37813 232.945 487.436 0.609546 0.477559 0.596181 0.212035 
13 1 490.815 236.296 500.051 0.190198 0.539029 0.763303 0.301064 
2 1 -239.805 495.226 485.241 0.458367 0.536112 0.708186 0.0309216 
ITEM: TIMESTEP
60000
ITEM: NUMBER OF ATOMS
55
ITEM: BOX BOUNDS pp pp pp
-5.0000000000000000e+02 5.0000000000000000e+02
-5.0000000000000000e+02 5.0000000000000000e+02
-5.0000000000000000e+02 5.0000000000000000e+02
ITEM: ATOMS id type x y z c_q[1] c_q[2] c_q[3] c_q[4] 
1 1 -499.47 -494.667 -487.409 0.815871 0.195339 0.0738138 0.539211 
7 1 -1.49556 -247.672 -491.704 -0.0267992 0.501197 0.809063 0.305779 
8 1 251.279 -244.78 499.837 0.118277 0.628697 0.356187 0.681088 
14 1 -259.585 254.391 -491.491 0.125356 0.397104 0.847465 0.329239 
16 1 244.842 258.627 -496.909 0.0800967 0.78714 0.271652 0.547906 
3 1 7.07088 492.762 -495.81 0.283525 0.839306 0.376895 0.270425 
17 1 -493.216 -487.149 -249.734 0.694496 0.409828 0.460722 0.370743 
19 1 16.4518 -493.185 -257.61 0.361094 0.841153 0.28126 0.288037 
21 1 -499.729 -255.657 -245.079 0.470748 0.71278 0.191518 0.483386 
22 1 -254.014 -244.364 -244.206 0.536633 0.179434 0.21028 0.797252 
23 1 -4.75538 -234.326 -245.242 0.520971 0.581734 0.430461 0.452633 
24 1 245.747 -267.023 -258.436 0.354104 0.302367 0.146689 0.872735 
27 1 1.77778 -7.28477 -250.625 0.294562 0.164416 0.708863 0.619446 
28 1 247.488 -2.45553 -245.235 0.540699 0.374457 0.73037 0.18435 
26 1 -236.614 16.0114 -257.694 0.177519 0.336087 0.81345 0.440262 
25 1 492.739 6.12453 -250.236 0.532303 0.623209 0.282089 0.498688 
30 1 -261.193 264.149 -254.278 0.150812 0.6014 0.0175522 0.784389 
31 1 -4.07016 250.008 -270.607 0.572637 0.38417 0.701071 0.181657 
32 1 242.826 236.185 -256.47 -0.012866 0.730838 0.399887 0.552993 
29 1 495.479 251.53 -252.85 0.581503 0.598784 0.550422 -0.0186454 
18 1 -251.277 489.29 -247.969 0.313393 0.518358 0.211635 0.767007 
20 1 251.334 498.793 -234.151 0.0479618 0.970515 0.224794 0.0725782 
33 1 -497.52 499.176 -2.16222 0.387292 0.376205 0.175256 0.823262 
34 1 -246.597 -486.051 -14.1905 0.184638 0.714816 0.596684 0.314508 
36 1 260.106 -495.666 -3.69279 0.410042 0.591649 0.119848 0.683706 
37 1 -491.863 -257.769 -6.9552 0.614212 0.0844664 0.765801 0.17076 
38 1 -239.481 -248.068 -9.54022 0.583592 0.800598 0.127053 0.0481769 
39 1 -16.2076 -262.485 -5.6475 0.597881 0.579545 0.535889 0.1396 
46 1 -252.469 244.539 -3.25309 0.434939 0.302715 0.846833 0.0454506 
47 1 0.0389697 251.402 -11.1152 0.206396 0.334755 0.749327 0.532775 
45 1 497.128 234.333 -4.39512 0.0760464 0.868197 0.230602 0.432752 
35 1 1.69988 489.9 -10.3548 0.61513 0.204748 0.497397 0.576445 
40 1 256.314 -259.619 13.891 0.0684219 0.337226 0.103684 0.933192 
42 1 -252.834 -2.23169 2.7024 0.651007 0.322998 0.521607 0.446978 
41 1 489.04 -4.0085 7.04988 0.385863 0.219519 0.889073 0.11167 
43 1 -4.38366 8.99018 1.75705 0.0489692 0.00815257 0.993203 0.10528 
44 1 249.308 1.28531 7.98067 0.496497 0.584956 0.626542 0.136976 
48 1 251.548 254.989 11.0115 0.0857211 0.179926 0.976294 0.0844308 
49 1 -492.133 -490.193 255.401 0.56045 0.610102 0.501126 0.250087 
50 1 -249.855 -483.943 253.141 0.429628 0.83058 -0.0775044 0.345761 
51 1 -5.52241 -495.481 262.994 0.769106 0.300672 0.343644 0.447192 
53 1 -497.993 -254.66 250.09 0.531291 0.422233 0.480195 0.555753 
54 1 -269.876 -249.311 238.602 0.181084 0.168518 0.877268 0.411352 
55 1 -5.9154 -251.688 256.079 0.634947 0.0430834 0.128221 0.760622 
52 1 240.337 494.135 248.559 0.248935 0.448526 0.848734 0.128476 
4 1 256.639 -494.425 497.15 0.432349 0.603876 0.330254 0.58253 
6 1 -248.344 -245.971 488.95 0.472451 0.551152 0.405449 0.555546 
5 1 495.241 -256 499.166 0.468966 0.513491 0.60907 0.381356 
11 1 14.093 -6.8184 496.514 0.724207 0.557529 0.16114 0.372451 
9 1 498.235 -9.88549 488.629 0.298758 0.724539 0.615633 0.0823631 
10 1 -248.176 7.15768 488.338 0.629409 0.238031 0.524947 0.521167 
12 1 251.098 10.4729 492.278 0.59352 0.420287 0.625798 0.281903 
15 1 2.5373 233.733 490.15 0.618989 0.479094 0.594345 0.184595 
13 1 493.665 232.58 498.323 0.178273 0.531 0.772041 0.30035 
2 1 -238.6 495.194 483.501 0.445052 0.497335 0.744481 0.0182794 
ITEM: TIMESTEP
70000
ITEM: NUMBER OF ATOMS
55
ITEM: BOX BOUNDS pp pp pp
-5.0000000000000000e+02 5.0000000000000000e+02
-5.0000000000000000e+02 5.0000000000000000e+02
-5.0000000000000000e+02 5.0000000000000000e+02
ITEM: ATOMS id type x y z c_q[1] c_q[2] c_q[3] c_q[4] 
1 1 -496.043 -494.55 -488.187 0.79279 0.199135 0.0949617 0.568165 
7 1 -0.00792471 -241.869 -495.002 -0.0236262 0.516241 0.797921 0.310256 
8 1 249.581 -245.509 499.124 0.0994169 0.643789 0.410471 0.638095 
14 1 -261.358 255.984 -489.273 0.119442 0.367147 0.857622 0.339737 
3 1 3.28255 488.225 -495.134 0.258439 0.833628 0.370249 0.318103 
17 1 -491.421 -483.263 -254.866 0.711652 0.389307 0.450873 0.372432 
19 1 14.0703 -493.006 -253.606 0.377183 0.840824 0.251558 0.295747 
21 1 -497.228 -252.356 -245.088 0.463075 0.713747 0.223684 0.475492 
22 1 -252.029 -245.67 -240.328 0.56268 0.175647 0.202907 0.7819 
23 1 -2.00969 -231.073 -247.211 0.580964 0.548379 0.403246 0.446267 
24 1 242.712 -266.756 -256.838 0.393277 0.335969 0.120616 0.847296 
27 1 4.47313 0.916169 -251.579 0.35739 0.180598 0.709623 0.579734 
28 1 242.745 -2.52797 -242.124 0.563644 0.434713 0.688601 0.138417 
26 1 -240.516 14.6427 -250.408 0.170834 0.35169 0.802425 0.450826 
25 1 489.941 8.61219 -246.167 0.531613 0.621473 0.272556 0.506826 
30 1 -258.078 265.425 -253.132 0.150807 0.57464 0.0369223 0.803544 
31 1 -2.77753 247.965 -271.302 0.577898 0.408733 0.6982 0.10718 
32 1 244.861 237.618 -255.834 -0.0108273 0.69751 0.36609 0.615906 
29 1 498.16 247.591 -248.495 0.549961 0.589332 0.590527 -0.0388368 
18 1 -250.353 494.15 -247.371 0.292931 0.533959 0.258222 0.749934 
20 1 249.809 498.177 -237.928 0.0769087 0.972061 0.194211 0.107075 
33 1 -494.619 -498.031 -5.93515 0.41537 0.346358 0.179981 0.821651 
34 1 -242.503 -486.029 -15.9201 0.112717 0.736667 0.596658 0.297684 
36 1 261.495 -491.916 -1.10723 0.433413 0.570051 0.0987032 0.69098 
37 1 -495.656 -250.37 -7.42732 0.647207 0.0667705 0.750655 0.114809 
38 1 -237.973 -252.526 -11.9837 0.553713 0.822118 0.128383 0.0322788 
39 1 -17.8327 -272.047 -3.32369 0.609059 0.613593 0.48796 0.12019 
46 1 -251.372 241.93 -1.48801 0.463102 0.285708 0.838179 0.0369234 
47 1 2.20993 256.089 -12.1925 0.215861 0.338435 0.73767 0.542871 
45 1 494.55 230.236 -5.74312 0.114958 0.855919 0.187165 0.468142 
35 1 6.64115 497.161 -3.60533 0.611058 0.321221 0.49162 0.530787 
40 1 258.297 -259.976 9.52439 0.0485005 0.327697 0.138396 0.933332 
42 1 -250.969 -3.73195 2.10755 0.627162 0.331909 0.530656 0.463583 
44 1 250.078 -2.05549 9.61094 0.517366 0.581398 0.613122 0.135609 
41 1 487.925 -3.56662 10.3083 0.410321 0.187724 0.874493 0.177927 
43 1 -7.14869 7.31497 0.925726 -0.0111642 -0.00409601 0.989511 0.143969 
48 1 246.963 256.267 14.6483 0.15018 0.174677 0.969615 0.0823479 
49 1 -491.59 -489.184 256.724 0.593979 0.565485 0.524064 0.229722 
50 1 -245.23 -479.88 254.066 0.427587 0.834576 -0.0100194 0.347205 
51 1 -7.40557 -499.11 261.166 0.75714 0.256085 0.35384 0.485753 