LAMMPS data file

35 atoms
35 ellipsoids
0 bonds
0 angles
0 dihedrals

1 atom types
0 bond types
0 angle types
0 dihedral types

-500.000000 500.000000 xlo xhi
-500.000000 500.000000 ylo yhi
-500.000000 500.000000 zlo zhi

Masses

1 203166.000000

Atoms

1 1 -500.000000 -500.000000 -500.000000 1 1.000000 3 0.000000
2 1 -250.000000 -500.000000 -500.000000 1 1.000000 4 0.000000
3 1 0.000000 -500.000000 -500.000000 1 1.000000 5 0.000000
4 1 250.000000 -500.000000 -500.000000 1 1.000000 6 0.000000
5 1 -500.000000 -250.000000 -500.000000 1 1.000000 7 0.000000
6 1 -250.000000 -250.000000 -500.000000 1 1.000000 8 0.000000
7 1 0.000000 -250.000000 -500.000000 1 1.000000 9 0.000000
8 1 250.000000 -250.000000 -500.000000 1 1.000000 10 0.000000
9 1 -500.000000 0.000000 -500.000000 1 1.000000 11 0.000000
10 1 -250.000000 0.000000 -500.000000 1 1.000000 12 0.000000
11 1 0.000000 0.000000 -500.000000 1 1.000000 13 0.000000
12 1 250.000000 0.000000 -500.000000 1 1.000000 14 0.000000
13 1 -500.000000 250.000000 -500.000000 1 1.000000 15 0.000000
14 1 -250.000000 250.000000 -500.000000 1 1.000000 16 0.000000
15 1 0.000000 250.000000 -500.000000 1 1.000000 17 0.000000
16 1 250.000000 250.000000 -500.000000 1 1.000000 18 0.000000
17 1 -500.000000 -500.000000 -250.000000 1 1.000000 19 0.000000
18 1 -250.000000 -500.000000 -250.000000 1 1.000000 20 0.000000
19 1 0.000000 -500.000000 -250.000000 1 1.000000 21 0.000000
20 1 250.000000 -500.000000 -250.000000 1 1.000000 22 0.000000
21 1 -500.000000 -250.000000 -250.000000 1 1.000000 23 0.000000
22 1 -250.000000 -250.000000 -250.000000 1 1.000000 24 0.000000
23 1 0.000000 -250.000000 -250.000000 1 1.000000 25 0.000000
24 1 250.000000 -250.000000 -250.000000 1 1.000000 26 0.000000
25 1 -500.000000 0.000000 -250.000000 1 1.000000 27 0.000000
26 1 -250.000000 0.000000 -250.000000 1 1.000000 28 0.000000
27 1 0.000000 0.000000 -250.000000 1 1.000000 29 0.000000
28 1 250.000000 0.000000 -250.000000 1 1.000000 30 0.000000
29 1 -500.000000 250.000000 -250.000000 1 1.000000 31 0.000000
30 1 -250.000000 250.000000 -250.000000 1 1.000000 32 0.000000
31 1 0.000000 250.000000 -250.000000 1 1.000000 33 0.000000
32 1 250.000000 250.000000 -250.000000 1 1.000000 34 0.000000
33 1 -500.000000 -500.000000 0.000000 1 1.000000 35 0.000000
34 1 -250.000000 -500.000000 0.000000 1 1.000000 36 0.000000
35 1 0.000000 -500.000000 0.000000 1 1.000000 37 0.000000

Ellipsoids

1 55.000000 110.000000 110.000000 0.503651 0.605714 0.465283 0.403681
2 55.000000 110.000000 110.000000 0.425701 0.764846 0.222537 0.429263
3 55.000000 110.000000 110.000000 0.526364 0.625570 0.409202 0.405163
4 55.000000 110.000000 110.000000 0.307525 0.237221 0.527730 0.755418
5 55.000000 110.000000 110.000000 0.041942 0.677942 0.516657 0.521249
6 55.000000 110.000000 110.000000 0.450145 0.575568 0.152695 0.665413
7 55.000000 110.000000 110.000000 0.234617 0.461945 0.670834 0.530606
8 55.000000 110.000000 110.000000 0.172690 0.578671 0.444209 0.661813
9 55.000000 110.000000 110.000000 0.161705 0.188829 0.702953 0.666373
10 55.000000 110.000000 110.000000 0.181425 0.635937 0.216831 0.718090
11 55.000000 110.000000 110.000000 0.499508 0.033611 0.638412 0.584630
12 55.000000 110.000000 110.000000 0.274597 0.381994 0.661620 0.583897
13 55.000000 110.000000 110.000000 0.268976 0.741277 0.524161 0.321584
14 55.000000 110.000000 110.000000 0.574783 0.610358 0.220988 0.498248
15 55.000000 110.000000 110.000000 0.043626 0.530824 0.653119 0.538292
16 55.000000 110.000000 110.000000 0.083067 0.669011 0.574689 0.463958
17 55.000000 110.000000 110.000000 0.239488 0.833812 0.289617 0.404383
18 55.000000 110.000000 110.000000 0.623240 0.206532 0.397141 0.641245
19 55.000000 110.000000 110.000000 0.560924 0.163705 0.590174 0.557009
20 55.000000 110.000000 110.000000 0.393199 0.703322 0.253830 0.535072
21 55.000000 110.000000 110.000000 0.219058 0.689699 0.689146 0.037500
22 55.000000 110.000000 110.000000 0.058371 0.575412 0.739381 0.344687
23 55.000000 110.000000 110.000000 0.248783 0.535567 0.645444 0.484435
24 55.000000 110.000000 110.000000 0.589938 0.404264 0.581903 0.387211
25 55.000000 110.000000 110.000000 0.238950 0.289484 0.800976 0.466411
26 55.000000 110.000000 110.000000 0.611344 0.423203 0.664043 0.078770
27 55.000000 110.000000 110.000000 0.323160 0.068930 0.923609 0.194325
28 55.000000 110.000000 110.000000 0.411378 0.725607 0.139846 0.533578
29 55.000000 110.000000 110.000000 0.441505 0.633183 0.319870 0.549395
30 55.000000 110.000000 110.000000 0.220441 0.099648 0.734188 0.634385
31 55.000000 110.000000 110.000000 0.643156 0.638657 0.379074 0.186468
32 55.000000 110.000000 110.000000 0.437852 0.539136 0.672608 0.255376
33 55.000000 110.000000 110.000000 0.288483 0.662348 0.641687 0.257510
34 55.000000 110.000000 110.000000 0.191910 0.496685 0.303184 0.790287
35 55.000000 110.000000 110.000000 0.464384 0.459385 0.586510 0.478873




