ITEM: TIMESTEP
0
ITEM: NUMBER OF ATOMS
45
ITEM: BOX BOUNDS
-500.000000 500.000000
-500.000000 500.000000
-500.000000 500.000000
ITEM: ATOMS id type x y z c_q[1] c_q[2] c_q[3] c_q[4]
1 1 -500.000000 -500.000000 -500.000000 0.669822 0.689495 0.274580 0.023280
2 1 -250.000000 -500.000000 -500.000000 0.637732 0.249063 0.266170 0.678542
3 1 0.000000 -500.000000 -500.000000 0.001509 0.617405 0.395866 0.679779
4 1 250.000000 -500.000000 -500.000000 0.018695 0.137148 0.451946 0.881241
5 1 -500.000000 -250.000000 -500.000000 0.503718 0.109237 0.631252 0.579531
6 1 -250.000000 -250.000000 -500.000000 0.553812 0.442318 0.028700 0.704857
7 1 0.000000 -250.000000 -500.000000 0.241728 0.536275 0.605917 0.535576
8 1 250.000000 -250.000000 -500.000000 0.241006 0.113244 0.768372 0.581976
9 1 -500.000000 0.000000 -500.000000 0.248304 0.816149 0.455383 0.254701
10 1 -250.000000 0.000000 -500.000000 0.563616 0.491092 0.339001 0.571177
11 1 0.000000 0.000000 -500.000000 0.528969 0.791264 0.288517 0.104165
12 1 250.000000 0.000000 -500.000000 0.537971 0.608655 0.581334 0.046661
13 1 -500.000000 250.000000 -500.000000 0.168112 0.175376 0.750686 0.614371
14 1 -250.000000 250.000000 -500.000000 0.570772 0.339778 0.024626 0.747103
15 1 0.000000 250.000000 -500.000000 0.610922 0.536569 0.526942 0.247387
16 1 250.000000 250.000000 -500.000000 0.177260 0.642762 0.258474 0.699019
17 1 -500.000000 -500.000000 -250.000000 0.001761 0.499041 0.139961 0.855199
18 1 -250.000000 -500.000000 -250.000000 0.405662 0.197385 0.604322 0.656713
19 1 0.000000 -500.000000 -250.000000 0.250927 0.343512 0.818320 0.386506
20 1 250.000000 -500.000000 -250.000000 0.247536 0.606925 0.145543 0.741070
21 1 -500.000000 -250.000000 -250.000000 0.533368 0.225109 0.714949 0.392036
22 1 -250.000000 -250.000000 -250.000000 0.229210 0.098084 0.742026 0.622285
23 1 0.000000 -250.000000 -250.000000 0.614838 0.080831 0.559184 0.550231
24 1 250.000000 -250.000000 -250.000000 0.009129 0.797464 0.565501 0.210181
25 1 -500.000000 0.000000 -250.000000 0.012841 0.426830 0.796151 0.428714
26 1 -250.000000 0.000000 -250.000000 0.634123 0.235561 0.697526 0.236340
27 1 0.000000 0.000000 -250.000000 0.451535 0.628725 0.564090 0.287444
28 1 250.000000 0.000000 -250.000000 0.531292 0.185327 0.743411 0.361557
29 1 -500.000000 250.000000 -250.000000 0.911398 0.018708 0.360586 0.197439
30 1 -250.000000 250.000000 -250.000000 0.789442 0.081593 0.544389 0.271596
31 1 0.000000 250.000000 -250.000000 0.011776 0.812968 0.086239 0.575766
32 1 250.000000 250.000000 -250.000000 0.876882 0.472074 0.043566 0.079542
33 1 -500.000000 -500.000000 0.000000 0.386830 0.114508 0.754484 0.517691
34 1 -250.000000 -500.000000 0.000000 0.483569 0.829447 0.257996 0.107779
35 1 0.000000 -500.000000 0.000000 0.842211 0.456903 0.286065 0.009327
36 1 250.000000 -500.000000 0.000000 0.651010 0.603232 0.328849 0.322731
37 1 -500.000000 -250.000000 0.000000 0.249567 0.056802 0.772549 0.581084
38 1 -250.000000 -250.000000 0.000000 0.313838 0.557477 0.309345 0.703585
39 1 0.000000 -250.000000 0.000000 0.276664 0.513404 0.191042 0.789541
40 1 250.000000 -250.000000 0.000000 0.722100 0.493801 0.467974 0.125428
41 1 -500.000000 0.000000 0.000000 0.882929 0.213459 0.206380 0.363701
42 1 -250.000000 0.000000 0.000000 0.509565 0.767333 0.387900 0.032822
43 1 0.000000 0.000000 0.000000 0.410099 0.418290 0.719445 0.373164
44 1 250.000000 0.000000 0.000000 0.700076 0.421376 0.137464 0.559857
45 1 -500.000000 250.000000 0.000000 0.045312 0.591543 0.544879 0.592563
