LAMMPS data file

35 atoms
35 ellipsoids
0 bonds
0 angles
0 dihedrals

1 atom types
0 bond types
0 angle types
0 dihedral types

-500.000000 500.000000 xlo xhi
-500.000000 500.000000 ylo yhi
-500.000000 500.000000 zlo zhi

Masses

1 203166.000000

Atoms

1 1 -500.000000 -500.000000 -500.000000 1 1.000000 3 0.000000
2 1 -250.000000 -500.000000 -500.000000 1 1.000000 4 0.000000
3 1 0.000000 -500.000000 -500.000000 1 1.000000 5 0.000000
4 1 250.000000 -500.000000 -500.000000 1 1.000000 6 0.000000
5 1 -500.000000 -250.000000 -500.000000 1 1.000000 7 0.000000
6 1 -250.000000 -250.000000 -500.000000 1 1.000000 8 0.000000
7 1 0.000000 -250.000000 -500.000000 1 1.000000 9 0.000000
8 1 250.000000 -250.000000 -500.000000 1 1.000000 10 0.000000
9 1 -500.000000 0.000000 -500.000000 1 1.000000 11 0.000000
10 1 -250.000000 0.000000 -500.000000 1 1.000000 12 0.000000
11 1 0.000000 0.000000 -500.000000 1 1.000000 13 0.000000
12 1 250.000000 0.000000 -500.000000 1 1.000000 14 0.000000
13 1 -500.000000 250.000000 -500.000000 1 1.000000 15 0.000000
14 1 -250.000000 250.000000 -500.000000 1 1.000000 16 0.000000
15 1 0.000000 250.000000 -500.000000 1 1.000000 17 0.000000
16 1 250.000000 250.000000 -500.000000 1 1.000000 18 0.000000
17 1 -500.000000 -500.000000 -250.000000 1 1.000000 19 0.000000
18 1 -250.000000 -500.000000 -250.000000 1 1.000000 20 0.000000
19 1 0.000000 -500.000000 -250.000000 1 1.000000 21 0.000000
20 1 250.000000 -500.000000 -250.000000 1 1.000000 22 0.000000
21 1 -500.000000 -250.000000 -250.000000 1 1.000000 23 0.000000
22 1 -250.000000 -250.000000 -250.000000 1 1.000000 24 0.000000
23 1 0.000000 -250.000000 -250.000000 1 1.000000 25 0.000000
24 1 250.000000 -250.000000 -250.000000 1 1.000000 26 0.000000
25 1 -500.000000 0.000000 -250.000000 1 1.000000 27 0.000000
26 1 -250.000000 0.000000 -250.000000 1 1.000000 28 0.000000
27 1 0.000000 0.000000 -250.000000 1 1.000000 29 0.000000
28 1 250.000000 0.000000 -250.000000 1 1.000000 30 0.000000
29 1 -500.000000 250.000000 -250.000000 1 1.000000 31 0.000000
30 1 -250.000000 250.000000 -250.000000 1 1.000000 32 0.000000
31 1 0.000000 250.000000 -250.000000 1 1.000000 33 0.000000
32 1 250.000000 250.000000 -250.000000 1 1.000000 34 0.000000
33 1 -500.000000 -500.000000 0.000000 1 1.000000 35 0.000000
34 1 -250.000000 -500.000000 0.000000 1 1.000000 36 0.000000
35 1 0.000000 -500.000000 0.000000 1 1.000000 37 0.000000

Ellipsoids

1 55.000000 110.000000 110.000000 0.673399 0.519587 0.393641 0.348727
2 55.000000 110.000000 110.000000 0.645922 0.072943 0.001321 0.759909
3 55.000000 110.000000 110.000000 0.141234 0.728487 0.400809 0.537320
4 55.000000 110.000000 110.000000 0.059438 0.473678 0.496666 0.724858
5 55.000000 110.000000 110.000000 0.447614 0.343079 0.508029 0.651034
6 55.000000 110.000000 110.000000 0.342678 0.433099 0.806208 0.212191
7 55.000000 110.000000 110.000000 0.429117 0.471002 0.627487 0.447522
8 55.000000 110.000000 110.000000 0.379859 0.654948 0.644406 0.107195
9 55.000000 110.000000 110.000000 0.680954 0.660417 0.314774 0.032681
10 55.000000 110.000000 110.000000 0.252694 0.226314 0.040708 0.939825
11 55.000000 110.000000 110.000000 0.303912 0.020079 0.695709 0.650556
12 55.000000 110.000000 110.000000 0.713247 0.323810 0.619515 0.051257
13 55.000000 110.000000 110.000000 0.723520 0.064988 0.200548 0.657325
14 55.000000 110.000000 110.000000 0.267986 0.715076 0.634089 0.121575
15 55.000000 110.000000 110.000000 0.036712 0.604381 0.595770 0.527669
16 55.000000 110.000000 110.000000 0.004431 0.649150 0.139528 0.747741
17 55.000000 110.000000 110.000000 0.781273 0.118904 0.532741 0.302756
18 55.000000 110.000000 110.000000 0.060501 0.715029 0.057746 0.694074
19 55.000000 110.000000 110.000000 0.056171 0.574998 0.484688 0.656734
20 55.000000 110.000000 110.000000 0.631345 0.346290 0.163834 0.674274
21 55.000000 110.000000 110.000000 0.847628 0.471894 0.011088 0.242322
22 55.000000 110.000000 110.000000 0.547848 0.476850 0.488085 0.483992
23 55.000000 110.000000 110.000000 0.056234 0.668852 0.243617 0.700090
24 55.000000 110.000000 110.000000 0.270575 0.718821 0.166867 0.618257
25 55.000000 110.000000 110.000000 0.785636 0.517795 0.297400 0.161919
26 55.000000 110.000000 110.000000 0.660093 0.691150 0.281929 0.084292
27 55.000000 110.000000 110.000000 0.527599 0.162189 0.506157 0.662676
28 55.000000 110.000000 110.000000 0.538404 0.620366 0.072893 0.565645
29 55.000000 110.000000 110.000000 0.703315 0.171172 0.184464 0.664847
30 55.000000 110.000000 110.000000 0.286139 0.481931 0.582999 0.588200
31 55.000000 110.000000 110.000000 0.190393 0.613784 0.295809 0.706765
32 55.000000 110.000000 110.000000 0.252770 0.039498 0.752383 0.607015
33 55.000000 110.000000 110.000000 0.526729 0.123312 0.566348 0.621772
34 55.000000 110.000000 110.000000 0.170199 0.220014 0.698902 0.658910
35 55.000000 110.000000 110.000000 0.335803 0.256717 0.838840 0.343045




