ITEM: TIMESTEP
0
ITEM: NUMBER OF ATOMS
35
ITEM: BOX BOUNDS pp pp pp
-5.0000000000000000e+02 5.0000000000000000e+02
-5.0000000000000000e+02 5.0000000000000000e+02
-5.0000000000000000e+02 5.0000000000000000e+02
ITEM: ATOMS id type x y z c_q[1] c_q[2] c_q[3] c_q[4] 
1 1 -500 -500 -500 0.673399 0.519587 0.393641 0.348727 
2 1 -250 -500 -500 0.645922 0.072943 0.001321 0.759909 
3 1 0 -500 -500 0.141234 0.728487 0.400809 0.53732 
4 1 250 -500 -500 0.059438 0.473678 0.496666 0.724858 
5 1 -500 -250 -500 0.447614 0.343079 0.508029 0.651034 
6 1 -250 -250 -500 0.342678 0.433099 0.806208 0.212191 
7 1 0 -250 -500 0.429117 0.471002 0.627487 0.447522 
8 1 250 -250 -500 0.379859 0.654948 0.644406 0.107195 
9 1 -500 0 -500 0.680954 0.660417 0.314774 0.032681 
10 1 -250 0 -500 0.252694 0.226314 0.040708 0.939825 
11 1 0 0 -500 0.303912 0.020079 0.695709 0.650556 
12 1 250 0 -500 0.713247 0.32381 0.619515 0.051257 
13 1 -500 250 -500 0.72352 0.064988 0.200548 0.657325 
14 1 -250 250 -500 0.267986 0.715076 0.634089 0.121575 
15 1 0 250 -500 0.036712 0.604381 0.59577 0.527669 
16 1 250 250 -500 0.004431 0.64915 0.139528 0.747741 
17 1 -500 -500 -250 0.781273 0.118904 0.532741 0.302756 
18 1 -250 -500 -250 0.060501 0.715029 0.057746 0.694074 
19 1 0 -500 -250 0.056171 0.574998 0.484688 0.656734 
20 1 250 -500 -250 0.631345 0.34629 0.163834 0.674274 
21 1 -500 -250 -250 0.847628 0.471894 0.011088 0.242322 
22 1 -250 -250 -250 0.547848 0.47685 0.488085 0.483992 
23 1 0 -250 -250 0.056234 0.668852 0.243617 0.70009 
24 1 250 -250 -250 0.270575 0.718821 0.166867 0.618257 
25 1 -500 0 -250 0.785636 0.517795 0.2974 0.161919 
26 1 -250 0 -250 0.660093 0.69115 0.281929 0.084292 
27 1 0 0 -250 0.527599 0.162189 0.506157 0.662676 
28 1 250 0 -250 0.538404 0.620366 0.072893 0.565645 
29 1 -500 250 -250 0.703315 0.171172 0.184464 0.664847 
30 1 -250 250 -250 0.286139 0.481931 0.582999 0.5882 
31 1 0 250 -250 0.190393 0.613784 0.295809 0.706765 
32 1 250 250 -250 0.25277 0.039498 0.752383 0.607015 
33 1 -500 -500 0 0.526729 0.123312 0.566348 0.621772 
34 1 -250 -500 0 0.170199 0.220014 0.698902 0.65891 
35 1 0 -500 0 0.335803 0.256717 0.83884 0.343045 
ITEM: TIMESTEP
10000
ITEM: NUMBER OF ATOMS
35
ITEM: BOX BOUNDS pp pp pp
-5.0000000000000000e+02 5.0000000000000000e+02
-5.0000000000000000e+02 5.0000000000000000e+02
-5.0000000000000000e+02 5.0000000000000000e+02
ITEM: ATOMS id type x y z c_q[1] c_q[2] c_q[3] c_q[4] 
1 1 -497.781 -496.453 -497.404 0.679567 0.504194 0.393712 0.35912 
6 1 -249.15 -249.042 -496.617 0.340794 0.440108 0.801046 0.220205 
7 1 -5.11445 -249.493 -495.064 0.427719 0.441704 0.654934 0.439335 
5 1 498.921 -247.209 -496.11 0.425721 0.335557 0.539463 0.644315 
10 1 -253.834 -5.67446 -496.69 0.2174 0.232732 0.0351251 0.94728 
12 1 248.238 1.28936 499.785 0.720987 0.350391 0.595619 0.051394 
14 1 -250.847 256.084 -499.451 0.275874 0.664529 0.680572 0.138261 
16 1 244.355 254.371 -497.012 0.00333614 0.624185 0.15366 0.76601 
13 1 499.913 253.04 -494.702 0.711909 0.0655277 0.180096 0.675616 
18 1 -260.87 -490.212 -251.442 0.0835612 0.723871 0.0281006 0.68428 
22 1 -246.853 -252.382 -250.189 0.566398 0.488905 0.473854 0.464357 
23 1 5.71967 -250.738 -247.11 0.0911109 0.663922 0.260374 0.695062 
24 1 247.18 -250.723 -244.049 0.300389 0.727762 0.204057 0.581798 
21 1 496.207 -248.503 -255.095 0.84083 0.472739 0.0329065 0.261611 
25 1 -496.313 -4.3726 -247.535 0.787576 0.508209 0.314354 0.150433 
27 1 -1.61215 -1.49867 -248.666 0.545547 0.216181 0.499966 0.636929 
26 1 -255.756 0.213972 -251.193 0.667023 0.700312 0.241881 0.0783358 
28 1 251.942 3.73281 -251.232 0.5556 0.610672 0.0789419 0.558709 
30 1 -254.726 252.017 -250.812 0.289978 0.455985 0.60162 0.588256 
31 1 3.80501 247.813 -249.755 0.221858 0.694806 0.245846 0.638423 
32 1 253.306 242.015 -250.803 0.216096 0.0966373 0.780962 0.577981 
29 1 498.863 254.304 -251.887 0.697774 0.131559 0.186924 0.678869 
19 1 -2.23492 497.205 -250.717 0.070214 0.601643 0.455307 0.652527 
20 1 251.563 497.211 -247.72 0.624446 0.349016 0.201859 0.668961 
17 1 499.615 499.452 -252.484 0.766487 0.18889 0.55128 0.270017 
34 1 -251.221 -498.058 -0.53703 0.218283 0.228973 0.685792 0.655449 
35 1 3.22194 -499.316 -0.11017 0.327425 0.236985 0.820794 0.403645 
33 1 496.623 -497.616 1.25118 0.601584 0.109129 0.542522 0.576071 
8 1 247.947 -249.728 490.875 0.347906 0.644414 0.666559 0.13925 
9 1 499.736 -1.88618 498.378 0.657295 0.698417 0.280684 0.0373274 
11 1 1.62984 -0.853295 498.923 0.332413 0.0533802 0.676188 0.655303 
15 1 1.826 246.868 498.871 0.0413628 0.605535 0.588096 0.534565 
2 1 -252.604 498.91 498.388 0.688731 0.028261 -0.0653815 0.72151 
3 1 2.11007 499.362 495.506 0.149129 0.657371 0.354313 0.64814 
4 1 249.092 -499.499 499.045 0.0532578 0.448985 0.523455 0.722198 
ITEM: TIMESTEP
20000
ITEM: NUMBER OF ATOMS
35
ITEM: BOX BOUNDS pp pp pp
-5.0000000000000000e+02 5.0000000000000000e+02
-5.0000000000000000e+02 5.0000000000000000e+02
-5.0000000000000000e+02 5.0000000000000000e+02
ITEM: ATOMS id type x y z c_q[1] c_q[2] c_q[3] c_q[4] 
5 1 -493.143 -245.253 -496.665 0.44274 0.359492 0.543985 0.615489 
6 1 -251.762 -248.059 -497.205 0.29397 0.429538 0.832724 0.188812 
7 1 -7.65906 -252.765 -493.95 0.425471 0.389589 0.68307 0.447895 
9 1 -499.182 -0.684913 -499.252 0.657564 0.712721 0.241812 0.034145 
10 1 -250.702 -10.7572 -497.074 0.212089 0.23089 0.040424 0.948722 
11 1 5.11304 6.18646 -496.961 0.335127 0.0151291 0.682672 0.649169 
12 1 246.329 6.07113 -496.924 0.742713 0.327744 0.576613 0.092082 
13 1 -498.316 247.665 -492.321 0.719005 0.0540852 0.160017 0.674167 
14 1 -250.927 263.126 -492.509 0.279186 0.642267 0.693009 0.171132 
16 1 243.277 253.153 -492.439 -0.0372789 0.613137 0.17434 0.769597 
4 1 250.498 496.193 -498.772 0.085951 0.47838 0.535887 0.690355 
18 1 -257.874 -490.53 -247.308 0.0247726 0.72457 0.0325459 0.687987 
17 1 496.873 -495.411 -248.234 0.773551 0.207022 0.526315 0.285926 
22 1 -247.806 -252.766 -251.136 0.559395 0.489806 0.478093 0.46754 
23 1 3.2639 -248.418 -243.454 0.0797055 0.681796 0.272328 0.674269 
24 1 244.065 -258.117 -242.343 0.314224 0.751744 0.142546 0.561983 
21 1 497.642 -252.416 -251.408 0.856012 0.463305 0.0453395 0.224803 
25 1 -492.127 -7.36096 -247.796 0.792466 0.492642 0.34631 0.0968003 
27 1 3.2438 -1.65328 -254.429 0.538226 0.238354 0.522627 0.616735 
26 1 -255.494 2.6797 -251.545 0.63109 0.733867 0.247933 0.0411482 
28 1 251.011 0.770605 -250.007 0.55745 0.610997 0.0764501 0.556854 
29 1 -499.368 253.019 -259.045 0.666537 0.117355 0.161872 0.718159 
30 1 -254.477 249.674 -254.229 0.261307 0.493297 0.623921 0.5469 
31 1 6.28174 248.32 -249.926 0.222343 0.714964 0.214151 0.627319 
32 1 251.802 239.737 -251.102 0.262971 0.101959 0.749564 0.598836 
19 1 -3.55577 -499.806 -250.648 0.0618922 0.631027 0.473017 0.611743 
20 1 248.688 497.122 -249.342 0.597348 0.363761 0.221844 0.67944 
35 1 7.16128 -498.246 0.302385 0.306968 0.229614 0.830585 0.40395 
34 1 -257.099 -497.145 0.658647 0.201625 0.222739 0.66448 0.684252 
33 1 499.64 -497.561 5.55868 0.53882 0.102735 0.601314 0.580982 
1 1 -497.209 -495.002 497.559 0.667635 0.536492 0.376008 0.353635 
8 1 251.707 -254.096 484.424 0.340538 0.640593 0.672632 0.145744 
15 1 0.79176 244.907 496.894 0.0293983 0.608361 0.557656 0.563961 
2 1 -256.207 496.163 498.472 0.686939 0.06865 -0.0394941 0.722386 
3 1 -0.0539412 497.671 495.827 0.12645 0.672518 0.393236 0.614081 
ITEM: TIMESTEP
30000
ITEM: NUMBER OF ATOMS
35
ITEM: BOX BOUNDS pp pp pp
-5.0000000000000000e+02 5.0000000000000000e+02
-5.0000000000000000e+02 5.0000000000000000e+02
-5.0000000000000000e+02 5.0000000000000000e+02
ITEM: ATOMS id type x y z c_q[1] c_q[2] c_q[3] c_q[4] 
4 1 252.733 -499.016 500.03 0.110179 0.498537 0.538503 0.670326 
5 1 -493.158 -247.987 -493.698 0.426593 0.327164 0.506709 0.673964 
6 1 -253.188 -247.26 -492.05 0.282399 0.478237 0.818683 0.145941 
7 1 -10.7636 -250.328 -493.047 0.444726 0.394839 0.671415 0.442181 
10 1 -247.95 -8.81105 -499.601 0.203444 0.241591 0.0416322 0.947898 
11 1 6.05743 3.21395 -499.198 0.314417 0.0179553 0.707488 0.632677 
12 1 245.505 9.43938 -495.208 0.789441 0.313285 0.523019 0.0713196 
13 1 -499.755 249.039 -490.862 0.718382 0.0178629 0.118742 0.685207 
14 1 -244.854 260.765 -487.751 0.29699 0.650726 0.674068 0.18435 
15 1 0.575677 242.909 -497.243 0.0198172 0.594411 0.58175 0.554841 
16 1 243.443 252.538 -490.124 -0.0523288 0.597669 0.156814 0.784515 
17 1 -499.803 499.611 -248.871 0.762774 0.229104 0.554801 0.240591 
18 1 -254.863 -493.079 -246.007 -0.0103999 0.732444 0.0456575 0.679215 
22 1 -249.188 -252.011 -252.904 0.566075 0.495927 0.471198 0.459987 
23 1 5.81274 -251.401 -245.497 0.0701606 0.669079 0.269994 0.68885 
24 1 244.526 -255.218 -239.783 0.321489 0.754762 0.176202 0.543995 
21 1 495.975 -254.313 -250.708 0.858134 0.458421 0.00214347 0.231195 
25 1 -493.623 -10.9099 -244.256 0.767393 0.511855 0.361307 0.136269 
26 1 -257.376 -0.117497 -247.295 0.624627 0.727298 0.278519 0.0574885 
27 1 8.13747 -3.48438 -251.57 0.519921 0.215652 0.551315 0.615815 
28 1 255.12 -3.30621 -255.762 0.576133 0.569759 0.105298 0.576505 
30 1 -259.768 249.934 -251.517 0.296998 0.435075 0.619312 0.582198 
31 1 2.19744 256.024 -246.763 0.21339 0.676094 0.248416 0.660038 
32 1 252.117 244.604 -248.472 0.282502 0.106783 0.726664 0.617049 
29 1 495.2 253.913 -263.377 0.677619 0.104452 0.190463 0.7026 
19 1 -1.95762 494.727 -245.101 0.0668746 0.603629 0.496148 0.620481 
20 1 246.549 496.471 -253.483 0.669804 0.365662 0.155128 0.627367 
34 1 -253.994 -493.805 -4.34458 0.219898 0.187876 0.655549 0.697569 
33 1 -498.734 -497.942 2.67556 0.532693 0.0944173 0.601102 0.588218 
35 1 9.52526 499.603 3.3176 0.288403 0.246642 0.815747 0.436518 
1 1 497.707 -495.835 498.64 0.67425 0.531973 0.374267 0.349737 
8 1 252.745 -249.061 481.688 0.320586 0.613831 0.70576 0.149463 
9 1 -494.884 2.98834 498.456 0.651544 0.702259 0.28002 0.0625457 
2 1 -255.523 491.931 496.092 0.695235 0.101653 -0.0379305 0.710546 
3 1 0.225021 495.484 497.753 0.147754 0.698694 0.361721 0.599294 
ITEM: TIMESTEP
40000
ITEM: NUMBER OF ATOMS
35
ITEM: BOX BOUNDS pp pp pp
-5.0000000000000000e+02 5.0000000000000000e+02
-5.0000000000000000e+02 5.0000000000000000e+02
-5.0000000000000000e+02 5.0000000000000000e+02
ITEM: ATOMS id type x y z c_q[1] c_q[2] c_q[3] c_q[4] 
4 1 253.854 -499.378 -497.356 0.109225 0.456456 0.549223 0.691428 
5 1 -488.643 -244.602 -493.192 0.455532 0.364509 0.496759 0.642537 
6 1 -256.592 -249.108 -493.819 0.309749 0.494148 0.799159 0.145665 
7 1 -13.5119 -249.904 -489.289 0.445833 0.415929 0.64065 0.466695 
10 1 -242.904 -10.4025 -497.622 0.188882 0.19819 0.0400557 0.960958 
11 1 2.87699 2.71244 -491.191 0.272248 0.0315546 0.712367 0.646079 
12 1 244.426 9.59759 -494.228 0.795038 0.327839 0.508642 0.0414638 
13 1 -498.802 250.14 -492.203 0.723002 0.0419995 0.118805 0.679257 
14 1 -240.695 259.741 -486.182 0.272701 0.619343 0.700033 0.228042 
16 1 241.075 252.483 -491.041 -0.0432657 0.59996 0.141416 0.786243 
18 1 -252.751 -494.981 -249.599 -0.00194832 0.715384 0.0428133 0.697416 
22 1 -248.306 -248.77 -256.274 0.589573 0.49549 0.464403 0.437291 
23 1 10.4962 -257.506 -243.496 0.110047 0.657029 0.28803 0.687925 
24 1 251.906 -256.661 -242.596 0.330793 0.722997 0.202084 0.571851 
21 1 490.954 -256.956 -245.276 0.858104 0.463588 -0.0209764 0.21978 
25 1 -491.697 -14.1938 -247.837 0.777586 0.499709 0.354004 0.142588 
27 1 2.43991 -1.58622 -249.112 0.511777 0.240848 0.552954 0.611816 
28 1 260.272 -7.04904 -256.071 0.593671 0.557978 0.104382 0.570367 
26 1 -257.47 0.98014 -247.922 0.600716 0.747728 0.281452 0.0287579 
30 1 -256.383 247.979 -247.739 0.262062 0.406178 0.604944 0.632761 
31 1 3.28203 252.703 -247.729 0.212857 0.673439 0.246122 0.663774 
32 1 248.501 249.395 -250.14 0.266092 0.147229 0.751098 0.585978 
29 1 495.122 249.106 -261.68 0.656208 0.146676 0.198325 0.713123 
17 1 -497.058 495.886 -252.677 0.773967 0.255893 0.547436 0.189227 
19 1 -1.74985 498.645 -245.986 -0.0189668 0.553319 0.550153 0.625148 
20 1 248.01 494.5 -255.435 0.630229 0.392242 0.180671 0.645225 
34 1 -251.998 -491.374 -5.40118 0.254134 0.138818 0.627723 0.722572 
35 1 5.94517 -497.966 1.87807 0.245059 0.253177 0.857104 0.375794 
33 1 499.722 -497.674 2.14465 0.538798 0.111798 0.564193 0.615536 
1 1 494.213 -494.259 492.777 0.645787 0.548585 0.378932 0.372055 
8 1 252.057 -255.18 484.945 0.339761 0.570082 0.732144 0.153409 
9 1 -496.746 6.8022 495.73 0.686162 0.646522 0.318619 0.098348 
15 1 7.22762 242.105 499.692 -0.00986611 0.619787 0.569533 0.539813 
2 1 -260.51 488.525 494.554 0.729067 0.0728489 -0.0252106 0.680088 
3 1 -1.55327 492.336 496.725 0.141583 0.71265 0.366718 0.581035 
ITEM: TIMESTEP
50000
ITEM: NUMBER OF ATOMS
35
ITEM: BOX BOUNDS pp pp pp
-5.0000000000000000e+02 5.0000000000000000e+02
-5.0000000000000000e+02 5.0000000000000000e+02
-5.0000000000000000e+02 5.0000000000000000e+02
ITEM: ATOMS id type x y z c_q[1] c_q[2] c_q[3] c_q[4] 
4 1 255.726 -497.143 -493.722 0.115224 0.49084 0.516805 0.69189 
5 1 -487.935 -245.276 -496.452 0.439338 0.401284 0.471292 0.651028 
6 1 -259.496 -252.88 -496.956 0.351969 0.473015 0.789953 0.168373 
7 1 -17.4189 -255.912 -490.96 0.449947 0.367119 0.663554 0.471665 
10 1 -241.077 -5.32736 -497.424 0.186539 0.174138 0.0391868 0.966097 
11 1 2.81032 -0.542329 -490.986 0.323834 0.0255124 0.718543 0.614961 
12 1 244.18 7.5475 -495.09 0.811721 0.314613 0.485935 0.0774304 
13 1 -497.545 250.889 -497.571 0.737722 0.060822 0.124077 0.660811 
14 1 -242.573 262.013 -487.771 0.265551 0.640177 0.697075 0.183692 
16 1 242.317 257.133 -493.102 -0.0805014 0.608671 0.145405 0.77582 
18 1 -252.308 -496.869 -254.425 -0.0404927 0.738853 0.0309284 0.671937 
19 1 -6.95828 -495.959 -244.573 0.00734008 0.567135 0.5394 0.622376 
22 1 -249.34 -250.828 -251.976 0.576145 0.508749 0.458823 0.445772 
23 1 11.1943 -257.767 -244.768 0.0950266 0.693113 0.245241 0.671134 
24 1 257.817 -253.563 -243.836 0.330965 0.746688 0.198778 0.541669 
21 1 494.54 -258.121 -237.692 0.832613 0.479345 -0.00100565 0.277458 
25 1 -493.676 -13.458 -248 0.780813 0.509544 0.334897 0.136161 
28 1 259.788 -13.3053 -263.756 0.632065 0.539691 0.0571074 0.553143 
26 1 -259.435 -0.595293 -248.385 0.566495 0.759188 0.320471 -0.00392941 
27 1 8.84604 3.37033 -248.813 0.500829 0.220828 0.527599 0.64965 
30 1 -259.353 244.135 -248.693 0.277902 0.378868 0.606678 0.641226 
31 1 0.969047 252.352 -248.08 0.201799 0.713679 0.20043 0.64013 
32 1 252.977 244.825 -251.73 0.314776 0.141493 0.74415 0.571958 
29 1 487.857 247.361 -260.822 0.622791 0.186952 0.222477 0.726418 
20 1 243.403 493.61 -253.767 0.656249 0.38931 0.166244 0.62461 
17 1 498.746 495.029 -255.203 0.796699 0.266844 0.512478 0.177288 
34 1 -254.05 -491.689 -6.01798 0.256654 0.110098 0.623224 0.730478 
35 1 3.16553 498.696 2.02987 0.252105 0.213477 0.880092 0.34104 
33 1 494.968 -496.542 0.491318 0.532282 0.103069 0.596581 0.59173 
1 1 495.057 -495.209 493.864 0.626899 0.562395 0.378146 0.384337 
8 1 253.186 -256.046 477.224 0.344761 0.579602 0.718629 0.169628 
9 1 -495.305 6.9333 495.518 0.687281 0.625324 0.348758 0.122402 
15 1 6.11648 243.898 498.796 0.002481 0.600632 0.549081 0.581158 
2 1 -263.073 488.33 494.241 0.728915 0.0662956 -0.0645407 0.678324 
3 1 0.568629 489.541 498.175 0.138305 0.711696 0.390094 0.567615 
ITEM: TIMESTEP
60000
ITEM: NUMBER OF ATOMS
35
ITEM: BOX BOUNDS pp pp pp
-5.0000000000000000e+02 5.0000000000000000e+02
-5.0000000000000000e+02 5.0000000000000000e+02
-5.0000000000000000e+02 5.0000000000000000e+02
ITEM: ATOMS id type x y z c_q[1] c_q[2] c_q[3] c_q[4] 
4 1 251.478 -495.625 -499.534 0.140967 0.444293 0.500036 0.72986 
1 1 496.697 -489.707 -499.089 0.646829 0.567687 0.358665 0.361528 
5 1 -488.292 -249.395 -494.135 0.389202 0.418023 0.47441 0.669861 
6 1 -264.846 -256.004 -498.758 0.395488 0.471444 0.767856 0.17812 
7 1 -16.8932 -255.67 -495.294 0.471812 0.351508 0.663945 0.461533 
11 1 -0.0865742 -2.47181 -491.116 0.342713 0.0415915 0.705422 0.619029 
12 1 247.907 7.08753 -493.77 0.781157 0.3085 0.535563 0.0882842 
13 1 -493.277 250.875 -493.223 0.769233 0.0506721 0.0884582 0.630784 
14 1 -247.036 257.834 -486.252 0.282332 0.614796 0.708076 0.202344 
16 1 238.908 260.641 -491.404 -0.051312 0.573562 0.133936 0.806508 
18 1 -253.782 -498.684 -254.016 -0.0578635 0.790749 0.0720612 0.605124 
19 1 -7.69618 -498.709 -244.558 0.0414485 0.626064 0.486051 0.608343 
22 1 -248.442 -255.09 -254.868 0.585998 0.507423 0.466531 0.426002 
23 1 9.30181 -257.291 -239.534 0.0630497 0.671907 0.294259 0.67674 
24 1 264.542 -250.702 -243.502 0.354519 0.725101 0.195955 0.556908 
21 1 493.896 -261.394 -236.025 0.814518 0.506284 0.02702 0.281969 
25 1 -492.473 -9.74399 -246.561 0.816218 0.490655 0.284406 0.110264 
28 1 261.345 -15.3539 -267.167 0.629639 0.557042 0.120058 0.528058 
26 1 -259.6 2.24774 -246.732 0.544469 0.773363 0.323243 -0.031251 
27 1 5.67495 8.71537 -241.92 0.487813 0.234834 0.519982 0.66069 
30 1 -261.619 243.055 -249.562 0.282371 0.364849 0.608703 0.64547 
31 1 1.81276 253.753 -247.299 0.129008 0.698399 0.256018 0.655783 
32 1 254.242 245.287 -261.563 0.345096 0.134296 0.740822 0.560408 
29 1 487.597 249.449 -260.368 0.654629 0.253208 0.208113 0.681202 
20 1 244.104 496.853 -257.408 0.677071 0.403566 0.112708 0.604985 
17 1 495.229 -499.318 -257.983 0.786982 0.221544 0.549743 0.171345 
34 1 -253.045 -489.401 -7.05885 0.211595 0.108352 0.620011 0.747712 
35 1 -1.35261 -496.952 2.88237 0.231397 0.197185 0.894005 0.329134 
33 1 485.967 499.548 3.0444 0.536984 0.0710606 0.585814 0.602844 
8 1 252.05 -253.383 476.782 0.383813 0.569829 0.707016 0.167662 
10 1 -243.501 -3.53983 498.103 0.18518 0.190272 0.0680324 0.961705 
9 1 -495.662 8.036 494.274 0.692906 0.612354 0.347924 0.154443 
15 1 2.96535 242.139 498.099 0.0250565 0.665506 0.485864 0.566048 
2 1 -265.033 485.385 498.934 0.729875 0.143211 -0.0950776 0.661614 
3 1 2.57235 486.58 498.591 0.13548 0.700899 0.373385 0.592427 
ITEM: TIMESTEP
70000
ITEM: NUMBER OF ATOMS
35
ITEM: BOX BOUNDS pp pp pp
-5.0000000000000000e+02 5.0000000000000000e+02
-5.0000000000000000e+02 5.0000000000000000e+02
-5.0000000000000000e+02 5.0000000000000000e+02
ITEM: ATOMS id type x y z c_q[1] c_q[2] c_q[3] c_q[4] 
5 1 -491.651 -246.235 -491.788 0.401956 0.399545 0.425308 0.705627 
7 1 -14.2487 -253.591 -494.832 0.505407 0.35891 0.64324 0.449432 
10 1 -246.246 -4.16366 -499.545 0.160737 0.213061 0.0994069 0.958586 
11 1 -1.68385 -6.55411 -491.378 0.329885 0.0569074 0.724808 0.602155 
12 1 245.258 10.1746 -489.348 0.824924 0.303251 0.467606 0.0942498 
14 1 -248.697 255.23 -482.826 0.287909 0.669556 0.670203 0.140107 
16 1 235.205 266.875 -491.325 -0.0311362 0.564156 0.104131 0.818483 
13 1 499.074 250.922 -495.647 0.783888 -0.0114985 0.0760864 0.616115 
19 1 -12.0202 -495.002 -241.768 0.0758612 0.66906 0.470986 0.569891 
20 1 242.004 -497.316 -263.02 0.696961 0.41057 0.074248 0.583237 
17 1 492.927 -497.819 -254.511 0.779311 0.231433 0.556895 0.170239 
22 1 -247.521 -254.849 -251.416 0.601969 0.528431 0.421436 0.42519 
23 1 8.98167 -261.556 -245.643 0.0673471 0.63799 0.328281 0.6933 
24 1 259.725 -243.995 -240.486 0.393962 0.711075 0.205852 0.544786 
21 1 490.77 -260.342 -233.871 0.822057 0.499437 0.0552683 0.267825 
25 1 -492.385 -9.98565 -242.854 0.809634 0.497351 0.292637 0.107234 
28 1 263.295 -11.3657 -267.11 0.664575 0.535288 0.0773608 0.51558 
26 1 -262.032 0.463659 -247.815 0.579287 0.742459 0.336334 -0.00779851 
27 1 4.95379 5.97378 -239.047 0.498943 0.207795 0.503935 0.673741 
30 1 -259.338 239.415 -246.368 0.26021 0.346493 0.613061 0.660598 
31 1 1.35973 254.568 -244.214 0.116531 0.689574 0.26169 0.665152 
32 1 256.254 251.213 -261.422 0.325885 0.0956731 0.73875 0.582146 
29 1 481.959 250.498 -261.618 0.689557 0.26814 0.178913 0.648539 
18 1 -254.409 497.685 -256.136 -0.0111558 0.744609 0.0739738 0.663295 
34 1 -251.566 -489.594 -6.76948 0.178581 0.120841 0.629909 0.746137 
33 1 486.621 -496.796 -0.0271776 0.508232 0.0596242 0.61005 0.604966 
35 1 -3.5135 499.034 0.157062 0.244179 0.244098 0.890308 0.29689 
1 1 -499.625 -484.04 500.263 0.663081 0.57083 0.327386 0.356786 
6 1 -262.035 -254.921 498.344 0.405735 0.49478 0.756749 0.133806 
8 1 251.275 -252.629 481.216 0.35173 0.587064 0.716667 0.134274 
9 1 -499.707 4.61768 499.235 0.709402 0.590849 0.362387 0.127756 
15 1 4.62137 241.633 496.275 0.0297955 0.625456 0.470388 0.621814 
2 1 -267.707 487.37 494.542 0.747379 0.141952 -0.0860996 0.64332 
3 1 5.60158 488.975 499.319 0.130287 0.694393 0.386688 0.59272 
4 1 250.488 496.441 499.352 0.135413 0.420553 0.502961 0.742851 
ITEM: TIMESTEP
80000
ITEM: NUMBER OF ATOMS
35
ITEM: BOX BOUNDS pp pp pp
-5.0000000000000000e+02 5.0000000000000000e+02
-5.0000000000000000e+02 5.0000000000000000e+02
-5.0000000000000000e+02 5.0000000000000000e+02
ITEM: ATOMS id type x y z c_q[1] c_q[2] c_q[3] c_q[4] 
1 1 495.785 -479.02 -497.128 0.678285 0.591581 0.293686 0.322039 
5 1 -481.126 -247.23 -487.102 0.363901 0.457646 0.46534 0.664526 
6 1 -262.695 -252.279 -499.384 0.366827 0.488999 0.763441 0.208509 
7 1 -10.1333 -252.309 -489.258 0.500609 0.332639 0.635747 0.484321 
10 1 -242.871 -3.64736 -499.411 0.145088 0.166412 0.0533254 0.973865 
11 1 -1.04964 -5.76229 -487.026 0.284028 0.0313424 0.733132 0.617142 
12 1 239.708 10.3906 -485.082 0.835211 0.28312 0.463924 0.0839003 
14 1 -248.689 250.192 -485.013 0.279885 0.708633 0.637159 0.116328 
16 1 236.918 265.022 -492.993 0.00767183 0.559664 0.113902 0.820819 
13 1 495.593 251.242 -494.84 0.775852 -0.00817698 0.165425 0.608787 
17 1 -498.731 -496.842 -260.719 0.762124 0.199434 0.601972 0.130475 
20 1 243.599 -495.491 -260.752 0.712415 0.420888 0.0265906 0.560903 
22 1 -251.668 -254.696 -251.505 0.62437 0.50854 0.366692 0.465925 
23 1 10.7729 -255.636 -247.15 0.0497825 0.625991 0.322183 0.708417 
24 1 259.35 -242.763 -239.473 0.446577 0.696364 0.158988 0.538859 
21 1 491.84 -260.016 -229.714 0.830356 0.450261 0.0857611 0.31689 
25 1 -495.484 -8.3754 -243.701 0.81385 0.504638 0.262948 0.117674 
28 1 263.33 -18.576 -269.881 0.672731 0.552361 0.0918708 0.483622 
26 1 -261.931 0.0351533 -244.971 0.575551 0.73884 0.350309 -0.0118538 
27 1 8.56849 5.74839 -244.599 0.497273 0.236556 0.498318 0.669656 
30 1 -269.371 239.686 -247.82 0.277919 0.308845 0.601576 0.682262 
31 1 6.47553 252.923 -247.853 0.127321 0.726056 0.234959 0.633583 
32 1 256.297 248.495 -256.336 0.299054 0.0702718 0.727393 0.613618 
29 1 484.413 248.804 -264.023 0.686725 0.278584 0.175507 0.648072 
18 1 -256.077 497.45 -253.369 0.0179577 0.754017 0.100696 0.648842 
19 1 -8.60366 499.66 -237.347 0.072102 0.613537 0.481763 0.621512 
34 1 -251.3 -492.269 -16.6577 0.186708 0.109703 0.617257 0.756373 
35 1 -1.2676 -499.948 -1.40076 0.260563 0.231341 0.876226 0.332891 
33 1 488.782 -496.921 3.63619 0.464479 0.0615817 0.629195 0.620146 
8 1 252.601 -251.762 484.252 0.343313 0.556494 0.732792 0.188325 
9 1 -496.504 -6.77084 498.619 0.689274 0.603647 0.368114 0.158126 
15 1 0.957125 244.208 493.557 0.0365148 0.61264 0.491568 0.617818 
2 1 -272.711 484.003 490.563 0.770163 0.116129 -0.0987105 0.61937 
3 1 4.11934 490.75 496.067 0.146088 0.685247 0.369551 0.61035 
4 1 248.62 492.411 -499.811 0.147427 0.401961 0.523357 0.736743 
ITEM: TIMESTEP
90000
ITEM: NUMBER OF ATOMS
35
ITEM: BOX BOUNDS pp pp pp
-5.0000000000000000e+02 5.0000000000000000e+02
-5.0000000000000000e+02 5.0000000000000000e+02
-5.0000000000000000e+02 5.0000000000000000e+02
ITEM: ATOMS id type x y z c_q[1] c_q[2] c_q[3] c_q[4] 
1 1 498.557 -482.511 -492.159 0.66423 0.595149 0.305146 0.33389 
5 1 -479.753 -243.212 -491.357 0.343574 0.458636 0.447753 0.686388 
6 1 -268.294 -252.284 -498.17 0.309984 0.478784 0.783283 0.247273 
7 1 -9.21758 -256.035 -488.808 0.477381 0.310554 0.63051 0.527372 
10 1 -239.614 -11.6436 -497.81 0.175696 0.193848 0.0588155 0.963377 
11 1 -4.52104 -10.0119 -484.997 0.305915 0.0886293 0.742452 0.589344 
12 1 242.065 11.1369 -488.109 0.816474 0.283999 0.489085 0.116239 
13 1 -498.116 252.521 -495.701 0.755408 -0.0132383 0.213494 0.619358 
14 1 -248.373 246.97 -482.451 0.299131 0.735141 0.599337 0.104328 
16 1 238.907 269.285 -496.245 -0.0463893 0.560705 0.100244 0.820615 
4 1 249.91 494.127 -493.521 0.192859 0.38935 0.526187 0.730985 
17 1 -492.26 -496.597 -264.298 0.769543 0.193089 0.596252 0.122489 
20 1 239.53 -492.051 -264.96 0.697359 0.446008 0.0732679 0.556236 
22 1 -252.607 -259.127 -251.444 0.60718 0.5054 0.35408 0.500531 
23 1 16.2284 -256.257 -248.539 0.0481778 0.632817 0.308681 0.708475 
24 1 253.856 -243.434 -239.179 0.393512 0.690324 0.189675 0.576736 
21 1 494.984 -265.471 -226.555 0.854749 0.405792 0.0292314 0.322309 
25 1 -490.148 -6.25624 -243.705 0.823949 0.506997 0.229273 0.107218 
26 1 -268.205 -1.22072 -240.739 0.570878 0.732927 0.368773 0.0303778 
28 1 262.495 -16.8613 -272.598 0.698914 0.539821 0.0962341 0.459185 
27 1 5.84734 0.27535 -245.558 0.491034 0.219697 0.516966 0.665856 
30 1 -268.035 246.86 -251.863 0.30296 0.276644 0.609811 0.678096 
31 1 9.18523 253.54 -250.939 0.125233 0.78011 0.235487 0.565943 
32 1 255.995 248.197 -260.77 0.341682 0.0538664 0.703566 0.620763 
29 1 487.242 249.844 -271.165 0.687179 0.302612 0.180063 0.635444 
18 1 -258.01 498.869 -252.407 -0.0387662 0.775201 0.112413 0.620422 
19 1 -9.35524 496.024 -241.304 0.0899908 0.593236 0.46776 0.648979 
34 1 -249.638 -492.314 -19.1883 0.196936 0.0988375 0.58494 0.780572 
35 1 -2.6551 499.956 -3.03116 0.245019 0.257216 0.867633 0.347877 
33 1 488.99 499.375 2.56288 0.492657 0.0390126 0.622558 0.606785 
8 1 253.114 -254.224 484.68 0.333327 0.584339 0.718426 0.176933 
9 1 -491.591 -8.74114 499.71 0.659836 0.639313 0.365204 0.150072 
15 1 -7.32415 251.683 493.129 0.0456706 0.620982 0.473154 0.623234 
2 1 -279.651 486.847 488.99 0.772251 0.0969021 -0.100276 0.619825 
3 1 10.7029 487.858 498.918 0.202595 0.705542 0.316289 0.600938 
ITEM: TIMESTEP
100000
ITEM: NUMBER OF ATOMS
35
ITEM: BOX BOUNDS pp pp pp
-5.0000000000000000e+02 5.0000000000000000e+02
-5.0000000000000000e+02 5.0000000000000000e+02
-5.0000000000000000e+02 5.0000000000000000e+02
ITEM: ATOMS id type x y z c_q[1] c_q[2] c_q[3] c_q[4] 
1 1 493.342 -481.078 -495.728 0.668402 0.580185 0.32872 0.329495 
5 1 -478.218 -241.879 -497.2 0.352509 0.508189 0.408127 0.6715 
6 1 -273.354 -251.962 -492.034 0.280682 0.467661 0.794932 0.265694 
7 1 -5.67099 -254.065 -494.77 0.499338 0.352849 0.586758 0.530919 
11 1 -1.2325 -13.335 -488.409 0.248603 0.0910884 0.751971 0.603688 
12 1 242.82 9.44208 -484.033 0.800619 0.291268 0.516445 0.0863548 
14 1 -245.377 251.795 -480.552 0.338155 0.738695 0.573282 0.106441 
16 1 245.034 270.902 -498.962 -0.0292184 0.578333 0.0915072 0.810126 
4 1 253.378 498.5 -494.201 0.170469 0.405136 0.498876 0.746946 
17 1 -499.735 -491.52 -258.758 0.795722 0.178459 0.564428 0.128062 
20 1 241.82 -496.696 -266.624 0.662853 0.473575 0.109703 0.569489 
22 1 -252.514 -262.189 -255.366 0.62942 0.488125 0.328724 0.507448 
23 1 12.1515 -253.291 -253.43 0.029944 0.650779 0.266528 0.710319 
24 1 251.009 -243.719 -235.443 0.431239 0.672923 0.191896 0.569547 
21 1 494.279 -267.363 -221.525 0.856483 0.416362 0.0140985 0.304764 
25 1 -492.907 -6.51632 -237.023 0.816275 0.466914 0.315109 0.128036 
27 1 6.73912 -2.69677 -249.19 0.493824 0.235819 0.509205 0.664257 
28 1 264.312 -15.1091 -268.999 0.710828 0.556821 0.114346 0.414246 
26 1 -272.971 0.853529 -237.569 0.564419 0.745291 0.354911 0.00335048 
30 1 -266.766 248.233 -249.31 0.26523 0.281271 0.634145 0.669627 
31 1 12.8442 250.282 -250.74 0.0778885 0.758192 0.244782 0.5993 
32 1 264.403 246.822 -261.159 0.323819 0.121412 0.73133 0.587841 
29 1 490.154 246.494 -271.444 0.663076 0.304352 0.179412 0.659933 
18 1 -258.29 499.199 -246.315 -0.0440996 0.777606 0.107197 0.617975 
19 1 -12.3546 491.724 -243.139 0.137252 0.616015 0.430768 0.645079 
34 1 -245.053 -486.734 -20.4283 0.186913 0.0956755 0.591817 0.778243 
35 1 0.160091 495.708 2.764 0.271234 0.261325 0.863643 0.335056 
33 1 487.509 495.744 5.31904 0.493569 0.0397606 0.633591 0.59445 
8 1 253.882 -254.062 483.959 0.347007 0.546971 0.730205 0.217278 
9 1 -493.7 -15.9901 495.867 0.683496 0.650931 0.309751 0.114787 
10 1 -237.807 -9.04492 497.474 0.165217 0.197068 -0.00843238 0.966332 
13 1 -496.223 252.688 496.093 0.753618 -0.0390956 0.213883 0.62031 
15 1 -4.52547 251.145 498.608 0.025246 0.593052 0.498646 0.631668 
2 1 -283.842 489.984 487.322 0.800955 0.0894547 -0.0698923 0.587864 
3 1 18.2203 492.779 498.276 0.175552 0.677467 0.394153 0.595704 
ITEM: TIMESTEP
110000
ITEM: NUMBER OF ATOMS
35
ITEM: BOX BOUNDS pp pp pp
-5.0000000000000000e+02 5.0000000000000000e+02
-5.0000000000000000e+02 5.0000000000000000e+02
-5.0000000000000000e+02 5.0000000000000000e+02
ITEM: ATOMS id type x y z c_q[1] c_q[2] c_q[3] c_q[4] 
1 1 491.812 -481.362 -492.014 0.668264 0.583059 0.348453 0.303391 
5 1 -486.04 -242.592 -494.373 0.282188 0.533069 0.412807 0.682493 
6 1 -270.732 -255.216 -494.817 0.311183 0.435956 0.777665 0.329158 
7 1 -9.67357 -253.83 -496.165 0.483518 0.333734 0.594258 0.549263 
11 1 -5.16491 -14.6101 -490.115 0.266435 0.10498 0.733733 0.616139 
12 1 247.316 8.90156 -478.846 0.83565 0.244475 0.486444 0.0727528 
14 1 -249.49 252.125 -474.905 0.348005 0.758927 0.539639 0.108223 
4 1 257.205 493.492 -497.459 0.223158 0.422587 0.512817 0.71319 
20 1 243.38 -499.202 -265.165 0.660366 0.444529 0.1117 0.594839 
17 1 495.853 -494.534 -255.351 0.791595 0.190254 0.554664 0.171837 
22 1 -255.329 -266.91 -261.612 0.593101 0.473097 0.383699 0.526484 
23 1 19.0902 -254.854 -258.751 0.0669735 0.639159 0.272345 0.716114 
24 1 251.384 -239.661 -231.86 0.421604 0.740304 0.141217 0.504239 
21 1 494.853 -266.868 -217.735 0.852839 0.418392 0.0777178 0.30261 
25 1 -494.067 -6.50015 -239.049 0.846118 0.425982 0.299941 0.112516 
27 1 4.29313 -1.26866 -251.771 0.491181 0.213087 0.511344 0.672207 
28 1 263.608 -16.7365 -262.315 0.684233 0.557257 0.164033 0.440889 
26 1 -273.563 5.36802 -235.174 0.552458 0.751889 0.359245 0.01989 
30 1 -266.1 245.85 -248.64 0.248568 0.278505 0.657741 0.654238 