ITEM: TIMESTEP
0
ITEM: NUMBER OF ATOMS
5
ITEM: BOX BOUNDS pp pp pp
-5.0000000000000000e+02 5.0000000000000000e+02
-5.0000000000000000e+02 5.0000000000000000e+02
-5.0000000000000000e+02 5.0000000000000000e+02
ITEM: ATOMS id type x y z c_q[1] c_q[2] c_q[3] c_q[4] 
1 1 -500 -500 -500 0.569968 0.468606 0.67291 0.052321 
2 1 0 -500 -500 0.315998 0.237006 0.876941 0.273765 
3 1 -500 0 -500 0.595812 0.172556 0.27877 0.733157 
4 1 0 0 -500 0.669665 0.68549 0.153127 0.241254 
5 1 -500 -500 0 0.793424 0.035193 0.590218 0.144506 
ITEM: TIMESTEP
10000
ITEM: NUMBER OF ATOMS
5
ITEM: BOX BOUNDS pp pp pp
-5.0000000000000000e+02 5.0000000000000000e+02
-5.0000000000000000e+02 5.0000000000000000e+02
-5.0000000000000000e+02 5.0000000000000000e+02
ITEM: ATOMS id type x y z c_q[1] c_q[2] c_q[3] c_q[4] 
3 1 495.212 -5.01799 -498.493 0.627256 0.196388 0.28867 0.696168 
5 1 -499.396 -500.542 2.35607 0.778929 0.0136673 0.603071 0.171427 
2 1 -7.49861 -498.259 495.736 0.349883 0.228936 0.870332 0.260178 
4 1 -3.66956 -0.83028 494.52 0.649878 0.695257 0.174017 0.25297 
1 1 -496.384 499.054 497.456 0.532455 0.463252 0.7049 0.0707429 
ITEM: TIMESTEP
20000
ITEM: NUMBER OF ATOMS
5
ITEM: BOX BOUNDS pp pp pp
-5.0000000000000000e+02 5.0000000000000000e+02
-5.0000000000000000e+02 5.0000000000000000e+02
-5.0000000000000000e+02 5.0000000000000000e+02
ITEM: ATOMS id type x y z c_q[1] c_q[2] c_q[3] c_q[4] 
3 1 489.863 -2.38665 -497.439 0.618045 0.191639 0.271649 0.712391 
5 1 -497.71 -499.494 5.12753 0.77346 -0.000548991 0.616432 0.147549 
2 1 -9.47794 -498.961 497.469 0.330812 0.177581 0.886234 0.271327 
4 1 -9.74241 1.86878 490.537 0.659902 0.706309 0.113686 0.229635 
1 1 -494.112 497.338 492.098 0.565557 0.379333 0.728542 0.0740179 
ITEM: TIMESTEP
30000
ITEM: NUMBER OF ATOMS
5
ITEM: BOX BOUNDS pp pp pp
-5.0000000000000000e+02 5.0000000000000000e+02
-5.0000000000000000e+02 5.0000000000000000e+02
-5.0000000000000000e+02 5.0000000000000000e+02
ITEM: ATOMS id type x y z c_q[1] c_q[2] c_q[3] c_q[4] 
3 1 488.698 -5.42663 -497.26 0.633031 0.179592 0.255053 0.708496 
5 1 -493.459 496.857 4.82815 0.760118 -0.0479529 0.62216 0.181214 
4 1 -11.8461 3.36282 492.769 0.66141 0.698937 0.0887118 0.257206 
2 1 -5.41581 497.441 496.368 0.370396 0.173561 0.879994 0.241442 
1 1 -498.351 497.792 494.78 0.578348 0.313796 0.75095 0.0558538 
ITEM: TIMESTEP
40000
ITEM: NUMBER OF ATOMS
5
ITEM: BOX BOUNDS pp pp pp
-5.0000000000000000e+02 5.0000000000000000e+02
-5.0000000000000000e+02 5.0000000000000000e+02
-5.0000000000000000e+02 5.0000000000000000e+02
ITEM: ATOMS id type x y z c_q[1] c_q[2] c_q[3] c_q[4] 
3 1 487.344 -1.29973 -495.02 0.60829 0.141278 0.30181 0.720371 
5 1 -494.924 -497.736 1.44321 0.716689 -0.0185728 0.658472 0.22897 
2 1 -5.54101 -499.015 498.628 0.362212 0.180424 0.885768 0.227299 
4 1 -8.04606 2.15108 491.821 0.647718 0.717675 0.0881104 0.240084 
1 1 -497.544 499.237 495.542 0.584539 0.271586 0.762844 0.0512183 
ITEM: TIMESTEP
50000
ITEM: NUMBER OF ATOMS
5
ITEM: BOX BOUNDS pp pp pp
-5.0000000000000000e+02 5.0000000000000000e+02
-5.0000000000000000e+02 5.0000000000000000e+02
-5.0000000000000000e+02 5.0000000000000000e+02
ITEM: ATOMS id type x y z c_q[1] c_q[2] c_q[3] c_q[4] 
3 1 487.933 -2.26135 -492.781 0.587484 0.122378 0.318651 0.733722 
5 1 -497.102 -495.103 -2.0852 0.689849 -0.012427 0.690989 0.215613 
1 1 -498.804 -498.978 490.93 0.567386 0.347252 0.746362 0.020826 
2 1 -1.05457 499.26 497.584 0.359362 0.193436 0.875121 0.260009 
4 1 -7.56242 5.29522 489.999 0.64279 0.734953 0.0861845 0.198084 
ITEM: TIMESTEP
60000
ITEM: NUMBER OF ATOMS
5
ITEM: BOX BOUNDS pp pp pp
-5.0000000000000000e+02 5.0000000000000000e+02
-5.0000000000000000e+02 5.0000000000000000e+02
-5.0000000000000000e+02 5.0000000000000000e+02
ITEM: ATOMS id type x y z c_q[1] c_q[2] c_q[3] c_q[4] 
3 1 492.652 -5.05826 -498.291 0.639631 0.12676 0.295721 0.698107 
5 1 -499.819 -494.697 -1.06085 0.693452 0.00432672 0.698013 0.178559 
4 1 -10.2647 0.651383 490.977 0.611576 0.764219 0.112277 0.171285 
1 1 -495.771 498.763 492.371 0.558108 0.349193 0.752701 0.00467186 
2 1 1.63212 499.243 497.046 0.341231 0.16603 0.889011 0.256231 
ITEM: TIMESTEP
70000
ITEM: NUMBER OF ATOMS
5
ITEM: BOX BOUNDS pp pp pp
-5.0000000000000000e+02 5.0000000000000000e+02
-5.0000000000000000e+02 5.0000000000000000e+02
-5.0000000000000000e+02 5.0000000000000000e+02
ITEM: ATOMS id type x y z c_q[1] c_q[2] c_q[3] c_q[4] 
3 1 494.734 -2.09999 -493.899 0.623501 0.110147 0.321558 0.70407 
5 1 -496.473 -495.445 -3.90115 0.648017 -0.0231864 0.729843 0.216484 
2 1 -3.2204 -496.455 499.226 0.33708 0.193688 0.89064 0.235846 
4 1 -11.2945 2.20958 486.435 0.57322 0.781593 0.0620029 0.238092 
1 1 -490.578 498.841 490.698 0.56901 0.294066 0.767697 -0.0198573 
ITEM: TIMESTEP
80000
ITEM: NUMBER OF ATOMS
5
ITEM: BOX BOUNDS pp pp pp
-5.0000000000000000e+02 5.0000000000000000e+02
-5.0000000000000000e+02 5.0000000000000000e+02
-5.0000000000000000e+02 5.0000000000000000e+02
ITEM: ATOMS id type x y z c_q[1] c_q[2] c_q[3] c_q[4] 
3 1 494.38 -1.36381 -496.281 0.606887 0.142681 0.283205 0.728784 
5 1 -493.333 -495.037 -3.4087 0.673246 -0.0334325 0.702025 0.229743 
2 1 -8.65719 -497.557 498.558 0.339632 0.191383 0.883221 0.260658 
4 1 -10.9107 4.55878 486.515 0.576745 0.791427 0.0715372 0.18945 
1 1 -494.045 494.887 487.541 0.503462 0.312275 0.805595 0.00526728 
ITEM: TIMESTEP
90000
ITEM: NUMBER OF ATOMS
5
ITEM: BOX BOUNDS pp pp pp
-5.0000000000000000e+02 5.0000000000000000e+02
-5.0000000000000000e+02 5.0000000000000000e+02
-5.0000000000000000e+02 5.0000000000000000e+02
ITEM: ATOMS id type x y z c_q[1] c_q[2] c_q[3] c_q[4] 
3 1 494.282 2.48684 -496.114 0.586611 0.130922 0.27112 0.751825 
5 1 -494.957 -496.189 -7.44862 0.647338 -0.003306 0.723628 0.239384 
2 1 -14.1306 -493.056 492.434 0.299192 0.179728 0.891482 0.288864 
4 1 -8.7064 -3.68432 484.634 0.561843 0.790407 0.0494335 0.239051 
1 1 -494.81 488.297 482.627 0.43291 0.377913 0.816371 -0.0575249 
ITEM: TIMESTEP
100000
ITEM: NUMBER OF ATOMS
5
ITEM: BOX BOUNDS pp pp pp
-5.0000000000000000e+02 5.0000000000000000e+02
-5.0000000000000000e+02 5.0000000000000000e+02
-5.0000000000000000e+02 5.0000000000000000e+02
ITEM: ATOMS id type x y z c_q[1] c_q[2] c_q[3] c_q[4] 
3 1 489.146 1.72605 -493.068 0.643324 0.112257 0.269289 0.707824 
5 1 -490.417 -496.772 -5.61531 0.648758 0.0309653 0.727273 0.221875 
2 1 -18.8447 -494.955 491.364 0.29018 0.183448 0.892948 0.291181 
4 1 -11.9402 -0.61691 475.963 0.532553 0.801408 0.077195 0.261098 
1 1 -493.68 493.695 480.547 0.446354 0.386674 0.806915 -0.0118007 
ITEM: TIMESTEP
110000
ITEM: NUMBER OF ATOMS
5
ITEM: BOX BOUNDS pp pp pp
-5.0000000000000000e+02 5.0000000000000000e+02
-5.0000000000000000e+02 5.0000000000000000e+02
-5.0000000000000000e+02 5.0000000000000000e+02
ITEM: ATOMS id type x y z c_q[1] c_q[2] c_q[3] c_q[4] 
3 1 487.813 1.68985 -488.866 0.642992 0.0710568 0.236695 0.724906 
5 1 -488.823 -494.528 -8.80345 0.652892 0.0119325 0.716483 0.245445 
2 1 -19.8349 -492.619 493.41 0.232862 0.175219 0.906984 0.304062 
4 1 -12.3834 0.357738 476.633 0.533363 0.801346 0.123692 0.240974 
1 1 -489.547 490.229 479.477 0.421737 0.39418 0.815519 -0.0410849 
ITEM: TIMESTEP
120000
ITEM: NUMBER OF ATOMS
5
ITEM: BOX BOUNDS pp pp pp
-5.0000000000000000e+02 5.0000000000000000e+02
-5.0000000000000000e+02 5.0000000000000000e+02
-5.0000000000000000e+02 5.0000000000000000e+02
ITEM: ATOMS id type x y z c_q[1] c_q[2] c_q[3] c_q[4] 
3 1 485.039 1.69314 -483.404 0.597218 0.0629151 0.255934 0.757542 
5 1 -492.74 -494.22 -11.8554 0.639552 0.0588737 0.739574 0.201338 
2 1 -24.1587 -488.4 495.109 0.276868 0.176916 0.889546 0.317415 
4 1 -14.1605 -2.44957 475.082 0.512801 0.818925 0.149409 0.209938 
1 1 -488.894 490.544 481.016 0.388874 0.419482 0.817171 -0.0710133 
ITEM: TIMESTEP
130000
ITEM: NUMBER OF ATOMS
5
ITEM: BOX BOUNDS pp pp pp
-5.0000000000000000e+02 5.0000000000000000e+02
-5.0000000000000000e+02 5.0000000000000000e+02
-5.0000000000000000e+02 5.0000000000000000e+02
ITEM: ATOMS id type x y z c_q[1] c_q[2] c_q[3] c_q[4] 
3 1 488.873 4.52999 -478.523 0.581286 0.0155673 0.260424 0.770742 
5 1 -489.339 -493.178 -9.48841 0.617482 0.0453951 0.745403 0.247042 
2 1 -25.0235 -489.599 491.662 0.280613 0.157942 0.884322 0.338061 
4 1 -16.6869 -4.84495 474.956 0.516008 0.81007 0.0902819 0.263384 
1 1 -486.351 491.653 483.104 0.424434 0.423262 0.793241 -0.107118 
ITEM: TIMESTEP
140000
ITEM: NUMBER OF ATOMS
5
ITEM: BOX BOUNDS pp pp pp
-5.0000000000000000e+02 5.0000000000000000e+02
-5.0000000000000000e+02 5.0000000000000000e+02
-5.0000000000000000e+02 5.0000000000000000e+02
ITEM: ATOMS id type x y z c_q[1] c_q[2] c_q[3] c_q[4] 
3 1 488.058 4.53234 -476.149 0.578828 0.00347296 0.255129 0.774503 
5 1 -484.725 -497.778 -12.5017 0.611814 0.00709845 0.760857 0.21617 
2 1 -20.9922 -486.821 486.83 0.260327 0.16935 0.880202 0.35888 
4 1 -16.5732 -5.74582 471.388 0.520363 0.823469 0.0739084 0.213678 
1 1 -486.172 493.36 489.785 0.480721 0.405759 0.773248 -0.079717 
ITEM: TIMESTEP
150000
ITEM: NUMBER OF ATOMS
5
ITEM: BOX BOUNDS pp pp pp
-5.0000000000000000e+02 5.0000000000000000e+02
-5.0000000000000000e+02 5.0000000000000000e+02
-5.0000000000000000e+02 5.0000000000000000e+02
ITEM: ATOMS id type x y z c_q[1] c_q[2] c_q[3] c_q[4] 
3 1 487.974 3.54791 -471.205 0.626451 0.00385604 0.206902 0.751489 
5 1 -483.597 -495.854 -16.354 0.64914 0.0750835 0.732819 0.189621 
2 1 -25.989 -483.061 492.146 0.248116 0.160143 0.900761 0.31847 
4 1 -9.92343 -6.32553 475.134 0.543966 0.816449 0.0349954 0.190493 
1 1 -486.592 492.172 491.915 0.520038 0.405836 0.74695 -0.0832039 
ITEM: TIMESTEP
160000
ITEM: NUMBER OF ATOMS
5
ITEM: BOX BOUNDS pp pp pp
-5.0000000000000000e+02 5.0000000000000000e+02
-5.0000000000000000e+02 5.0000000000000000e+02
-5.0000000000000000e+02 5.0000000000000000e+02
ITEM: ATOMS id type x y z c_q[1] c_q[2] c_q[3] c_q[4] 
3 1 489.123 3.43832 -470.089 0.618233 0.00916012 0.244013 0.747102 
5 1 -482.02 -493.038 -11.9566 0.656481 0.100285 0.724186 0.185822 
2 1 -23.7775 -478.074 494.123 0.251188 0.0983901 0.896198 0.352213 
4 1 -11.392 0.070705 470.327 0.556101 0.804344 0.0243914 0.207817 
1 1 -486.643 491.883 492.794 0.511134 0.405041 0.75372 -0.0811749 
ITEM: TIMESTEP
170000
ITEM: NUMBER OF ATOMS
5
ITEM: BOX BOUNDS pp pp pp
-5.0000000000000000e+02 5.0000000000000000e+02
-5.0000000000000000e+02 5.0000000000000000e+02
-5.0000000000000000e+02 5.0000000000000000e+02
ITEM: ATOMS id type x y z c_q[1] c_q[2] c_q[3] c_q[4] 
3 1 495.501 -1.54947 -471.117 0.609445 0.0278802 0.249218 0.752123 
5 1 -483.573 -492.114 -9.10241 0.643017 0.0896313 0.741585 0.168959 
2 1 -23.8905 -476.725 493.279 0.285954 0.0560745 0.891463 0.346958 
4 1 -8.24117 0.507081 464.273 0.568878 0.794499 0.0123379 0.212124 
1 1 -487.132 490.639 495.434 0.489052 0.437588 0.752162 -0.0599826 
ITEM: TIMESTEP
180000
ITEM: NUMBER OF ATOMS
5
ITEM: BOX BOUNDS pp pp pp
-5.0000000000000000e+02 5.0000000000000000e+02
-5.0000000000000000e+02 5.0000000000000000e+02
-5.0000000000000000e+02 5.0000000000000000e+02
ITEM: ATOMS id type x y z c_q[1] c_q[2] c_q[3] c_q[4] 
3 1 498.335 2.44679 -469.271 0.62308 -0.0307592 0.251922 0.739838 
5 1 -486.48 -492.012 -5.58167 0.61707 0.101546 0.764382 0.156946 
2 1 -20.5102 -476.716 496.234 0.253207 0.0949241 0.900968 0.339312 
4 1 -10.6062 4.82425 468.432 0.577175 0.794494 0.00822638 0.188626 
1 1 -482.089 488.253 496.416 0.522329 0.462912 0.714015 -0.0553851 
ITEM: TIMESTEP
190000
ITEM: NUMBER OF ATOMS
5
ITEM: BOX BOUNDS pp pp pp
-5.0000000000000000e+02 5.0000000000000000e+02
-5.0000000000000000e+02 5.0000000000000000e+02
-5.0000000000000000e+02 5.0000000000000000e+02
ITEM: ATOMS id type x y z c_q[1] c_q[2] c_q[3] c_q[4] 
3 1 496.677 3.03606 -465.793 0.615126 0.0279113 0.273997 0.738761 
5 1 -490.026 -486.022 -3.12416 0.660863 0.0899872 0.727397 0.16142 
2 1 -23.1196 -476.81 496.176 0.201482 0.117621 0.912531 0.335943 
4 1 -13.9676 6.39258 469.338 0.585279 0.79385 0.00121707 0.165072 
1 1 -482.028 489.035 499.528 0.497797 0.471326 0.719334 -0.112288 
ITEM: TIMESTEP
200000
ITEM: NUMBER OF ATOMS
5
ITEM: BOX BOUNDS pp pp pp
-5.0000000000000000e+02 5.0000000000000000e+02
-5.0000000000000000e+02 5.0000000000000000e+02
-5.0000000000000000e+02 5.0000000000000000e+02
ITEM: ATOMS id type x y z c_q[1] c_q[2] c_q[3] c_q[4] 
3 1 -499.556 3.67741 -464.262 0.595071 0.00921448 0.272963 0.755842 
1 1 -480.759 487.24 -499.545 0.506997 0.481847 0.707108 -0.10381 
5 1 -488.932 -485.316 -3.17278 0.640945 0.106425 0.733648 0.199059 
2 1 -26.8992 -480.79 495.141 0.218977 0.108316 0.914038 0.323807 
4 1 -18.8565 7.81635 471.195 0.613658 0.778451 0.0251179 0.129644 
ITEM: TIMESTEP
210000
ITEM: NUMBER OF ATOMS
5
ITEM: BOX BOUNDS pp pp pp
-5.0000000000000000e+02 5.0000000000000000e+02
-5.0000000000000000e+02 5.0000000000000000e+02
-5.0000000000000000e+02 5.0000000000000000e+02
ITEM: ATOMS id type x y z c_q[1] c_q[2] c_q[3] c_q[4] 
3 1 499.114 2.72259 -463.233 0.594015 0.0117284 0.291046 0.749867 
1 1 -485.738 486.369 -498.627 0.561641 0.480803 0.661898 -0.123605 
5 1 -492.582 -485.402 -2.36785 0.607924 0.0638883 0.755544 0.235587 
2 1 -30.4515 -477.405 496.955 0.235524 0.123248 0.911104 0.315005 
4 1 -24.4686 5.34615 470.056 0.596288 0.790259 -0.0370185 0.136236 
ITEM: TIMESTEP
220000
ITEM: NUMBER OF ATOMS
5
ITEM: BOX BOUNDS pp pp pp
-5.0000000000000000e+02 5.0000000000000000e+02
-5.0000000000000000e+02 5.0000000000000000e+02
-5.0000000000000000e+02 5.0000000000000000e+02
ITEM: ATOMS id type x y z c_q[1] c_q[2] c_q[3] c_q[4] 
3 1 498.677 4.35008 -464.684 0.595096 0.0512695 0.293689 0.74631 
1 1 -486.066 485.589 -499.065 0.540888 0.487709 0.680077 -0.0841147 
5 1 -494.878 -483.923 0.882841 0.594499 0.0631828 0.770157 0.222345 
2 1 -27.4266 -483.173 494.406 0.236331 0.146035 0.909217 0.310076 
4 1 -28.9797 1.53607 473.73 0.591227 0.795912 -0.0103855 0.129873 
ITEM: TIMESTEP
230000
ITEM: NUMBER OF ATOMS
5
ITEM: BOX BOUNDS pp pp pp
-5.0000000000000000e+02 5.0000000000000000e+02
-5.0000000000000000e+02 5.0000000000000000e+02
-5.0000000000000000e+02 5.0000000000000000e+02
ITEM: ATOMS id type x y z c_q[1] c_q[2] c_q[3] c_q[4] 
3 1 -498.021 6.84713 -470.497 0.618642 0.0704992 0.270298 0.734337 
5 1 -495.557 -486.307 4.64201 0.598898 0.0830224 0.771279 0.19889 
2 1 -22.4217 -488.239 497.959 0.218952 0.162133 0.921331 0.277348 
4 1 -28.6751 0.687275 469.12 0.585564 0.798941 -0.0425597 0.13037 
1 1 -493.256 485.095 499.704 0.53365 0.46852 0.701406 -0.0611265 
ITEM: TIMESTEP
240000
ITEM: NUMBER OF ATOMS
5
ITEM: BOX BOUNDS pp pp pp
-5.0000000000000000e+02 5.0000000000000000e+02
-5.0000000000000000e+02 5.0000000000000000e+02
-5.0000000000000000e+02 5.0000000000000000e+02
ITEM: ATOMS id type x y z c_q[1] c_q[2] c_q[3] c_q[4] 
2 1 -22.7727 -483.755 -499.395 0.216886 0.161069 0.919567 0.285332 
3 1 499.729 3.65526 -471.676 0.606908 0.0149814 0.258242 0.751498 
5 1 -494.202 -489.485 2.52848 0.587528 0.009118 0.76998 0.248715 
4 1 -25.0758 1.20353 464.476 0.578025 0.809269 0.0101658 0.104246 
1 1 -493.001 488.768 498.036 0.519349 0.522969 0.673779 -0.0529381 
ITEM: TIMESTEP
250000
ITEM: NUMBER OF ATOMS
5
ITEM: BOX BOUNDS pp pp pp
-5.0000000000000000e+02 5.0000000000000000e+02
-5.0000000000000000e+02 5.0000000000000000e+02
-5.0000000000000000e+02 5.0000000000000000e+02
ITEM: ATOMS id type x y z c_q[1] c_q[2] c_q[3] c_q[4] 
3 1 497.629 0.0846333 -472.242 0.588152 0.0595918 0.27625 0.757768 
5 1 -494.528 -485.684 2.20964 0.614739 -0.00626677 0.760017 0.210788 
2 1 -25.586 -490.672 496.733 0.214971 0.164322 0.927223 0.258926 
4 1 -23.3512 4.8893 466.344 0.584859 0.802954 0.0477806 0.104507 
1 1 -491.831 487.63 492.436 0.549228 0.501013 0.667074 -0.0484336 
ITEM: TIMESTEP
260000
ITEM: NUMBER OF ATOMS
5
ITEM: BOX BOUNDS pp pp pp
-5.0000000000000000e+02 5.0000000000000000e+02
-5.0000000000000000e+02 5.0000000000000000e+02
-5.0000000000000000e+02 5.0000000000000000e+02
ITEM: ATOMS id type x y z c_q[1] c_q[2] c_q[3] c_q[4] 
3 1 496.247 1.74345 -473.325 0.634028 0.0720813 0.274117 0.719495 
5 1 -495.177 -477.689 1.84209 0.637216 -0.0235728 0.741864 0.207454 
2 1 -32.7403 -493.285 494.299 0.237692 0.151456 0.925227 0.254005 
4 1 -22.4026 2.49803 470.631 0.59101 0.79499 0.0996378 0.0936501 
1 1 -486.974 487.226 493.004 0.54967 0.454892 0.699856 -0.0337332 
ITEM: TIMESTEP
270000
ITEM: NUMBER OF ATOMS
5
ITEM: BOX BOUNDS pp pp pp
-5.0000000000000000e+02 5.0000000000000000e+02
-5.0000000000000000e+02 5.0000000000000000e+02
-5.0000000000000000e+02 5.0000000000000000e+02
ITEM: ATOMS id type x y z c_q[1] c_q[2] c_q[3] c_q[4] 
3 1 495.405 1.54144 -471.046 0.633689 0.0756654 0.254182 0.726708 
5 1 -495.528 -477.539 -3.07445 0.652826 -0.0502006 0.729151 0.199091 
2 1 -26.9108 -494.218 492.93 0.241885 0.159945 0.929136 0.229382 
4 1 -25.225 2.49787 467.476 0.627298 0.769626 0.0552189 0.105471 
1 1 -484.404 489.901 491.752 0.490682 0.434303 0.754635 -0.0337306 
ITEM: TIMESTEP
280000
ITEM: NUMBER OF ATOMS
5
ITEM: BOX BOUNDS pp pp pp
-5.0000000000000000e+02 5.0000000000000000e+02
-5.0000000000000000e+02 5.0000000000000000e+02
-5.0000000000000000e+02 5.0000000000000000e+02
ITEM: ATOMS id type x y z c_q[1] c_q[2] c_q[3] c_q[4] 
3 1 494.643 5.34917 -468.873 0.656887 0.0317959 0.236834 0.715122 
5 1 -494.861 -475.117 -1.75622 0.641659 -0.0902892 0.729343 0.219501 
2 1 -23.1588 -495.449 494.204 0.25307 0.168952 0.914651 0.266127 
4 1 -24.8789 5.00045 465.287 0.606707 0.779475 0.0895082 0.127725 
1 1 -480.492 490.165 492.734 0.495624 0.495032 0.71169 -0.0528938 
ITEM: TIMESTEP
290000
ITEM: NUMBER OF ATOMS
5
ITEM: BOX BOUNDS pp pp pp
-5.0000000000000000e+02 5.0000000000000000e+02
-5.0000000000000000e+02 5.0000000000000000e+02
-5.0000000000000000e+02 5.0000000000000000e+02
ITEM: ATOMS id type x y z c_q[1] c_q[2] c_q[3] c_q[4] 
3 1 497.134 2.53345 -466.688 0.67001 0.0372792 0.227787 0.705556 
5 1 -493.908 -481.721 -5.45323 0.640516 -0.0894511 0.730183 0.220388 
2 1 -21.7191 -493.98 490.745 0.305996 0.139021 0.90953 0.24453 
4 1 -28.9225 1.78948 471.382 0.614225 0.767541 0.103821 0.151094 
1 1 -486.799 494.942 488.576 0.449924 0.487569 0.745517 -0.0636388 
ITEM: TIMESTEP
300000
ITEM: NUMBER OF ATOMS
5
ITEM: BOX BOUNDS pp pp pp
-5.0000000000000000e+02 5.0000000000000000e+02
-5.0000000000000000e+02 5.0000000000000000e+02
-5.0000000000000000e+02 5.0000000000000000e+02
ITEM: ATOMS id type x y z c_q[1] c_q[2] c_q[3] c_q[4] 
3 1 499.15 0.710792 -462.338 0.649709 0.0741951 0.265596 0.708401 
5 1 -490.24 -487.671 -5.28042 0.643005 -0.10328 0.737808 0.17753 
1 1 -492.921 -496.448 489.904 0.400281 0.495571 0.769622 -0.0432019 
2 1 -22.1567 -493.734 490.857 0.299162 0.110648 0.899156 0.299629 
4 1 -32.7067 1.73132 468.899 0.620749 0.771963 0.0626169 0.121751 
ITEM: TIMESTEP
310000
ITEM: NUMBER OF ATOMS
5
ITEM: BOX BOUNDS pp pp pp
-5.0000000000000000e+02 5.0000000000000000e+02
-5.0000000000000000e+02 5.0000000000000000e+02
-5.0000000000000000e+02 5.0000000000000000e+02
ITEM: ATOMS id type x y z c_q[1] c_q[2] c_q[3] c_q[4] 
3 1 -496.326 2.51878 -465.067 0.641902 0.0631243 0.259292 0.71885 
5 1 -495.315 -487.543 -6.67555 0.653943 -0.0826611 0.73922 0.138129 
1 1 -493.593 -495.979 491.49 0.441852 0.485848 0.750047 -0.0784103 
2 1 -23.2056 -495.741 488.175 0.275052 0.132054 0.899198 0.31361 
4 1 -26.3235 4.11926 466.994 0.627264 0.768069 0.0294335 0.12547 
ITEM: TIMESTEP
320000
ITEM: NUMBER OF ATOMS
5
ITEM: BOX BOUNDS pp pp pp
-5.0000000000000000e+02 5.0000000000000000e+02
-5.0000000000000000e+02 5.0000000000000000e+02
-5.0000000000000000e+02 5.0000000000000000e+02
ITEM: ATOMS id type x y z c_q[1] c_q[2] c_q[3] c_q[4] 
3 1 -490.163 -6.33536 -464.4 0.638416 0.0723848 0.254766 0.722689 
5 1 -497.867 -483.359 -8.41843 0.642059 -0.0776784 0.748935 0.144302 
1 1 -490.884 -491.704 495.145 0.454518 0.463347 0.759544 -0.0426185 
2 1 -23.7442 -498.795 492.653 0.312014 0.154976 0.886367 0.304931 
4 1 -24.1131 6.31982 464.899 0.621474 0.776377 -0.0251082 0.101871 
ITEM: TIMESTEP
330000
ITEM: NUMBER OF ATOMS
5
ITEM: BOX BOUNDS pp pp pp
-5.0000000000000000e+02 5.0000000000000000e+02
-5.0000000000000000e+02 5.0000000000000000e+02
-5.0000000000000000e+02 5.0000000000000000e+02
ITEM: ATOMS id type x y z c_q[1] c_q[2] c_q[3] c_q[4] 
3 1 -490.658 -5.40748 -468.984 0.656654 0.0703306 0.244585 0.709956 
5 1 -499.88 -478.117 -8.8302 0.613861 -0.0410019 0.778715 0.12287 
1 1 -491.031 -488.626 495.373 0.418451 0.480637 0.770023 -0.0308518 
2 1 -25.2408 -493.738 497.647 0.350978 0.203004 0.858945 0.312758 
4 1 -23.4631 4.57831 468.898 0.613048 0.777404 -0.0482397 0.132241 
ITEM: TIMESTEP
340000
ITEM: NUMBER OF ATOMS
5
ITEM: BOX BOUNDS pp pp pp
-5.0000000000000000e+02 5.0000000000000000e+02
-5.0000000000000000e+02 5.0000000000000000e+02
-5.0000000000000000e+02 5.0000000000000000e+02
ITEM: ATOMS id type x y z c_q[1] c_q[2] c_q[3] c_q[4] 
2 1 -31.6077 -499.446 -499.737 0.388163 0.124636 0.864877 0.292888 
3 1 -490.852 -0.714926 -470.531 0.671561 0.0689038 0.26599 0.688119 
5 1 496.338 -475.664 -2.74775 0.646361 -0.0678431 0.751445 0.113772 
1 1 -490.608 -487.203 494.047 0.438472 0.459383 0.772467 0.00207646 
4 1 -18.0765 4.2502 468.614 0.641673 0.750887 -0.0740574 0.13762 
ITEM: TIMESTEP
350000
ITEM: NUMBER OF ATOMS
5
ITEM: BOX BOUNDS pp pp pp
-5.0000000000000000e+02 5.0000000000000000e+02
-5.0000000000000000e+02 5.0000000000000000e+02
-5.0000000000000000e+02 5.0000000000000000e+02
ITEM: ATOMS id type x y z c_q[1] c_q[2] c_q[3] c_q[4] 
3 1 -486.317 -2.09532 -464.352 0.658589 0.0465184 0.243236 0.710587 
5 1 496.549 -477.279 -2.88117 0.616357 -0.0466917 0.779499 0.101516 
1 1 -483.38 -487.419 494.472 0.454749 0.425142 0.782447 0.0153074 
2 1 -37.352 -496.801 498.428 0.403995 0.16248 0.858287 0.271537 
4 1 -21.7934 7.22153 469.549 0.646905 0.744242 -0.107085 0.127088 
ITEM: TIMESTEP
360000
ITEM: NUMBER OF ATOMS
5
ITEM: BOX BOUNDS pp pp pp
-5.0000000000000000e+02 5.0000000000000000e+02
-5.0000000000000000e+02 5.0000000000000000e+02
-5.0000000000000000e+02 5.0000000000000000e+02
ITEM: ATOMS id type x y z c_q[1] c_q[2] c_q[3] c_q[4] 
2 1 -37.1067 499.538 499.599 0.380204 0.163073 0.857136 0.306872 
3 1 -488.192 -4.53354 -466.138 0.667594 0.0172878 0.240672 0.704341 
5 1 496.007 -474.251 -1.9259 0.624253 -0.0292489 0.776875 0.0769205 
1 1 -484.782 -493.281 494.17 0.460191 0.390729 0.796981 0.0194125 
4 1 -18.5058 4.76243 467.1 0.653969 0.734358 -0.107937 0.146261 
ITEM: TIMESTEP
370000
ITEM: NUMBER OF ATOMS
5
ITEM: BOX BOUNDS pp pp pp
-5.0000000000000000e+02 5.0000000000000000e+02
-5.0000000000000000e+02 5.0000000000000000e+02
-5.0000000000000000e+02 5.0000000000000000e+02
ITEM: ATOMS id type x y z c_q[1] c_q[2] c_q[3] c_q[4] 
3 1 -488.007 -5.05394 -462.601 0.684797 0.0381153 0.237692 0.687825 
2 1 -34.6123 499.213 -496.403 0.389613 0.0979116 0.857434 0.321592 
5 1 495.598 -472.12 -1.59337 0.650902 0.0197425 0.754388 0.082678 
1 1 -490.76 -492.731 488.542 0.475863 0.355691 0.804299 -0.0118879 
4 1 -13.8136 6.98682 468.774 0.653546 0.743019 -0.0720847 0.12492 
ITEM: TIMESTEP
380000
ITEM: NUMBER OF ATOMS
5
ITEM: BOX BOUNDS pp pp pp
-5.0000000000000000e+02 5.0000000000000000e+02
-5.0000000000000000e+02 5.0000000000000000e+02
-5.0000000000000000e+02 5.0000000000000000e+02
ITEM: ATOMS id type x y z c_q[1] c_q[2] c_q[3] c_q[4] 
2 1 -32.4734 -499.996 -496.743 0.358161 0.0759624 0.845536 0.388611 
3 1 -488.862 -4.79463 -461.231 0.692042 0.076309 0.216826 0.684281 
5 1 497.203 -471.394 -0.329546 0.642798 -0.0230966 0.754737 0.129034 
1 1 -489.089 -489.708 490.131 0.480296 0.378179 0.791385 -0.00252218 
4 1 -11.7507 9.13101 471.569 0.630149 0.766225 -0.0432083 0.118084 
ITEM: TIMESTEP
390000
ITEM: NUMBER OF ATOMS
5
ITEM: BOX BOUNDS pp pp pp
-5.0000000000000000e+02 5.0000000000000000e+02
-5.0000000000000000e+02 5.0000000000000000e+02
-5.0000000000000000e+02 5.0000000000000000e+02
ITEM: ATOMS id type x y z c_q[1] c_q[2] c_q[3] c_q[4] 
3 1 -490.572 -2.56687 -462.788 0.702974 0.125766 0.211521 0.667286 
2 1 -31.4425 499.737 -497.45 0.375969 0.0789901 0.841792 0.379201 
5 1 500.067 -471.488 -1.74287 0.666829 -0.0320096 0.731827 0.136907 
1 1 -489.981 -489.006 493.617 0.475382 0.360203 0.8022 -0.0272179 
4 1 -13.2546 6.49713 467.426 0.638219 0.758057 -0.062638 0.118755 
ITEM: TIMESTEP
400000
ITEM: NUMBER OF ATOMS
5
ITEM: BOX BOUNDS pp pp pp
-5.0000000000000000e+02 5.0000000000000000e+02
-5.0000000000000000e+02 5.0000000000000000e+02
-5.0000000000000000e+02 5.0000000000000000e+02
ITEM: ATOMS id type x y z c_q[1] c_q[2] c_q[3] c_q[4] 
3 1 -483.215 -4.18573 -466.034 0.71743 0.098174 0.1608 0.670671 
2 1 -32.2462 497.558 -494.211 0.405199 0.0562281 0.812483 0.41536 
5 1 -499.926 -473.69 -5.1076 0.646915 0.00553129 0.749981 0.137833 
1 1 -486.942 -490.459 497.59 0.463534 0.293909 0.83457 -0.0473891 
4 1 -14.8938 5.31206 464.713 0.61236 0.775031 -0.0955244 0.123362 
ITEM: TIMESTEP
410000
ITEM: NUMBER OF ATOMS
5
ITEM: BOX BOUNDS pp pp pp
-5.0000000000000000e+02 5.0000000000000000e+02
-5.0000000000000000e+02 5.0000000000000000e+02
-5.0000000000000000e+02 5.0000000000000000e+02
ITEM: ATOMS id type x y z c_q[1] c_q[2] c_q[3] c_q[4] 
3 1 -480.98 -4.75594 -465.626 0.747854 0.0834842 0.112809 0.64886 
2 1 -36.0956 496.014 -490.477 0.421368 0.12132 0.825083 0.356327 
5 1 496.358 -471.97 -7.26134 0.65771 -0.0143826 0.737328 0.153485 
1 1 -486.572 -484.129 497.979 0.476111 0.327491 0.815962 -0.0165701 
4 1 -16.6182 3.12733 462.114 0.610213 0.780052 -0.0650804 0.122162 
ITEM: TIMESTEP
420000
ITEM: NUMBER OF ATOMS
5
ITEM: BOX BOUNDS pp pp pp
-5.0000000000000000e+02 5.0000000000000000e+02
-5.0000000000000000e+02 5.0000000000000000e+02
-5.0000000000000000e+02 5.0000000000000000e+02
ITEM: ATOMS id type x y z c_q[1] c_q[2] c_q[3] c_q[4] 
1 1 -483.149 -485.293 499.301 0.466251 0.371801 0.802133 -0.0309198 
2 1 -35.3641 -498.842 -487.748 0.413647 0.12986 0.84129 0.322899 
3 1 -483.418 -7.20582 -466.866 0.770381 0.0525883 0.0896987 0.629049 
5 1 -500.162 -466.616 -10.8192 0.638724 0.00952621 0.75941 0.123442 
4 1 -17.2938 -0.638901 460.653 0.622622 0.77109 -0.0310034 0.129615 
ITEM: TIMESTEP
430000
ITEM: NUMBER OF ATOMS
5
ITEM: BOX BOUNDS pp pp pp
-5.0000000000000000e+02 5.0000000000000000e+02
-5.0000000000000000e+02 5.0000000000000000e+02
-5.0000000000000000e+02 5.0000000000000000e+02
ITEM: ATOMS id type x y z c_q[1] c_q[2] c_q[3] c_q[4] 
1 1 -476.064 -487.383 -496.586 0.462761 0.335307 0.816934 -0.0777246 
2 1 -29.3171 -496.462 -484.978 0.45049 0.131205 0.830417 0.300418 
3 1 -484.554 -9.85403 -458.444 0.771053 0.0994096 0.0927044 0.622094 
5 1 499.711 -471.552 -12.5887 0.655676 0.0364973 0.747398 0.100768 
4 1 -11.4256 -0.517932 458.095 0.599443 0.788796 -0.102897 0.0887784 
ITEM: TIMESTEP
440000
ITEM: NUMBER OF ATOMS
5
ITEM: BOX BOUNDS pp pp pp
-5.0000000000000000e+02 5.0000000000000000e+02
-5.0000000000000000e+02 5.0000000000000000e+02
-5.0000000000000000e+02 5.0000000000000000e+02
ITEM: ATOMS id type x y z c_q[1] c_q[2] c_q[3] c_q[4] 
1 1 -471.604 -483.774 -497.928 0.461462 0.331816 0.821227 -0.0503651 
3 1 -479.043 -14.3879 -461.007 0.744983 0.148581 0.103874 0.641977 
2 1 -33.8505 496.946 -483.895 0.444956 0.165322 0.832709 0.285094 
5 1 -498.591 -467.448 -13.4121 0.643153 0.0341994 0.762391 0.0628017 
4 1 -4.85421 0.728511 455.038 0.581435 0.799207 -0.127739 0.0829702 
ITEM: TIMESTEP
450000
ITEM: NUMBER OF ATOMS
5
ITEM: BOX BOUNDS pp pp pp
-5.0000000000000000e+02 5.0000000000000000e+02
-5.0000000000000000e+02 5.0000000000000000e+02
-5.0000000000000000e+02 5.0000000000000000e+02
ITEM: ATOMS id type x y z c_q[1] c_q[2] c_q[3] c_q[4] 
1 1 -472.83 -481.738 -492.479 0.40486 0.354187 0.842789 -0.0186114 
3 1 -482.251 -11.9346 -462.658 0.735126 0.203082 0.0947813 0.639815 
2 1 -39.1983 494.959 -478.357 0.474299 0.151675 0.7977 0.34016 
5 1 -497.201 -468.75 -11.3835 0.613499 0.0533115 0.787769 -0.0140302 
4 1 -0.685876 4.08177 451.714 0.587423 0.791439 -0.0981308 0.137582 
ITEM: TIMESTEP
460000
ITEM: NUMBER OF ATOMS
5
ITEM: BOX BOUNDS pp pp pp
-5.0000000000000000e+02 5.0000000000000000e+02
-5.0000000000000000e+02 5.0000000000000000e+02
-5.0000000000000000e+02 5.0000000000000000e+02
ITEM: ATOMS id type x y z c_q[1] c_q[2] c_q[3] c_q[4] 
1 1 -476.574 -477.294 -490.69 0.413266 0.372884 0.829311 -0.0491136 
3 1 -481.305 -11.2291 -461.155 0.74179 0.181186 0.0752255 0.641296 
2 1 -37.4834 494.76 -480.34 0.442538 0.133103 0.814425 0.350935 
5 1 -498.524 -469.295 -11.5461 0.612868 0.046147 0.788254 -0.0303246 
4 1 -2.51482 6.26454 453.565 0.578303 0.793976 -0.117364 0.146264 
ITEM: TIMESTEP
470000
ITEM: NUMBER OF ATOMS
5
ITEM: BOX BOUNDS pp pp pp
-5.0000000000000000e+02 5.0000000000000000e+02
-5.0000000000000000e+02 5.0000000000000000e+02
-5.0000000000000000e+02 5.0000000000000000e+02
ITEM: ATOMS id type x y z c_q[1] c_q[2] c_q[3] c_q[4] 
1 1 -472.899 -478.892 -483.479 0.382813 0.406955 0.828402 -0.0399037 
3 1 -475.788 -10.8025 -461.462 0.724686 0.15532 0.090023 0.665283 
2 1 -33.8751 494.588 -480.538 0.443256 0.0939191 0.806964 0.378831 
5 1 -499.147 -463.394 -10.394 0.595297 0.0249023 0.800129 -0.0692425 
4 1 -4.05876 6.87124 454.769 0.5955 0.785534 -0.0951296 0.138802 
ITEM: TIMESTEP
480000
ITEM: NUMBER OF ATOMS
5
ITEM: BOX BOUNDS pp pp pp
-5.0000000000000000e+02 5.0000000000000000e+02
-5.0000000000000000e+02 5.0000000000000000e+02
-5.0000000000000000e+02 5.0000000000000000e+02
ITEM: ATOMS id type x y z c_q[1] c_q[2] c_q[3] c_q[4] 
1 1 -478.798 -478.986 -481.387 0.378621 0.4068 0.829578 -0.0544126 
3 1 -471.214 -15.1327 -463.458 0.7032 0.16124 0.106274 0.684264 
2 1 -31.4584 489.073 -482.631 0.43556 0.0619564 0.822543 0.360379 
5 1 -497.684 -460.455 -12.0708 0.594198 0.00124738 0.801183 -0.0709418 
4 1 -6.80964 7.95758 452.779 0.60532 0.771276 -0.0553633 0.188826 
ITEM: TIMESTEP
490000
ITEM: NUMBER OF ATOMS
5
ITEM: BOX BOUNDS pp pp pp
-5.0000000000000000e+02 5.0000000000000000e+02
-5.0000000000000000e+02 5.0000000000000000e+02
-5.0000000000000000e+02 5.0000000000000000e+02
ITEM: ATOMS id type x y z c_q[1] c_q[2] c_q[3] c_q[4] 
1 1 -478.52 -475.762 -483.769 0.403388 0.360754 0.839046 -0.056 
3 1 -471.536 -19.8656 -467.316 0.72223 0.170109 0.0937236 0.663824 