LAMMPS data file

10 atoms
10 ellipsoids
0 bonds
0 angles
0 dihedrals

1 atom types
0 bond types
0 angle types
0 dihedral types

-500.000000 500.000000 xlo xhi
-500.000000 500.000000 ylo yhi
-500.000000 500.000000 zlo zhi

Masses

1 203166.000000

Atoms

1 1 -500.000000 -500.000000 -500.000000 1 1.000000 3 0.000000
2 1 -166.666667 -500.000000 -500.000000 1 1.000000 4 0.000000
3 1 166.666667 -500.000000 -500.000000 1 1.000000 5 0.000000
4 1 -500.000000 -166.666667 -500.000000 1 1.000000 6 0.000000
5 1 -166.666667 -166.666667 -500.000000 1 1.000000 7 0.000000
6 1 166.666667 -166.666667 -500.000000 1 1.000000 8 0.000000
7 1 -500.000000 166.666667 -500.000000 1 1.000000 9 0.000000
8 1 -166.666667 166.666667 -500.000000 1 1.000000 10 0.000000
9 1 166.666667 166.666667 -500.000000 1 1.000000 11 0.000000
10 1 -500.000000 -500.000000 -166.666667 1 1.000000 12 0.000000

Ellipsoids

1 55.000000 110.000000 110.000000 0.452396 0.303153 0.799156 0.254532
2 55.000000 110.000000 110.000000 0.486052 0.481222 0.496648 0.534340
3 55.000000 110.000000 110.000000 0.651971 0.297009 0.652830 0.246033
4 55.000000 110.000000 110.000000 0.382063 0.670640 0.574693 0.272025
5 55.000000 110.000000 110.000000 0.547400 0.075128 0.608894 0.569173
6 55.000000 110.000000 110.000000 0.697899 0.497004 0.419211 0.300311
7 55.000000 110.000000 110.000000 0.703894 0.343075 0.182380 0.594618
8 55.000000 110.000000 110.000000 0.699439 0.087863 0.188797 0.683682
9 55.000000 110.000000 110.000000 0.820581 0.532806 0.198296 0.058674
10 55.000000 110.000000 110.000000 0.152599 0.687169 0.138329 0.696691




