ITEM: TIMESTEP
0
ITEM: NUMBER OF ATOMS
10
ITEM: BOX BOUNDS pp pp pp
-5.0000000000000000e+02 5.0000000000000000e+02
-5.0000000000000000e+02 5.0000000000000000e+02
-5.0000000000000000e+02 5.0000000000000000e+02
ITEM: ATOMS id type x y z c_q[1] c_q[2] c_q[3] c_q[4] 
1 1 -500 -500 -500 0.452396 0.303153 0.799156 0.254532 
2 1 -166.667 -500 -500 0.486052 0.481222 0.496648 0.53434 
3 1 166.667 -500 -500 0.651971 0.297009 0.65283 0.246033 
4 1 -500 -166.667 -500 0.382063 0.67064 0.574693 0.272025 
5 1 -166.667 -166.667 -500 0.5474 0.075128 0.608894 0.569173 
6 1 166.667 -166.667 -500 0.697899 0.497004 0.419211 0.300311 
7 1 -500 166.667 -500 0.703894 0.343075 0.18238 0.594618 
8 1 -166.667 166.667 -500 0.699439 0.087863 0.188797 0.683682 
9 1 166.667 166.667 -500 0.820581 0.532806 0.198296 0.058674 
10 1 -500 -500 -166.667 0.152599 0.687169 0.138329 0.696691 
ITEM: TIMESTEP
10000
ITEM: NUMBER OF ATOMS
10
ITEM: BOX BOUNDS pp pp pp
-5.0000000000000000e+02 5.0000000000000000e+02
-5.0000000000000000e+02 5.0000000000000000e+02
-5.0000000000000000e+02 5.0000000000000000e+02
ITEM: ATOMS id type x y z c_q[1] c_q[2] c_q[3] c_q[4] 
4 1 -498.72 -166.671 -497.862 0.374438 0.659625 0.608312 0.233769 
5 1 -161.958 -162.846 -498.045 0.553622 0.0574731 0.580016 0.594794 
7 1 -495.383 163.376 -496.299 0.663673 0.342627 0.216921 0.628561 
8 1 -164.188 163.78 -496.362 0.688091 0.0894642 0.246735 0.676497 
1 1 -498.456 499.259 -492.624 0.441446 0.262969 0.810611 0.28086 
2 1 -167.455 496.739 -492.75 0.490078 0.512732 0.478454 0.517698 
10 1 -497.07 -499.533 -163.119 0.15677 0.70355 0.148474 0.677049 
3 1 165.438 -499.333 499.645 0.665943 0.290925 0.639324 0.25129 
6 1 162.986 -169.816 493.432 0.709492 0.476497 0.417623 0.308486 
9 1 169.299 167.771 492.953 0.78227 0.594991 0.158833 0.0938665 
ITEM: TIMESTEP
20000
ITEM: NUMBER OF ATOMS
10
ITEM: BOX BOUNDS pp pp pp
-5.0000000000000000e+02 5.0000000000000000e+02
-5.0000000000000000e+02 5.0000000000000000e+02
-5.0000000000000000e+02 5.0000000000000000e+02
ITEM: ATOMS id type x y z c_q[1] c_q[2] c_q[3] c_q[4] 
4 1 -493.907 -162.233 499.534 0.34005 0.678059 0.608855 0.232159 
7 1 -495.565 165.607 -496.78 0.678223 0.328482 0.149336 0.640166 
8 1 -165.748 161.86 -497.63 0.717449 0.135758 0.208133 0.650782 
2 1 -164.391 494.71 -487.049 0.486901 0.482981 0.492316 0.535988 
1 1 497.503 497.841 -495.893 0.407432 0.203601 0.845622 0.278333 
10 1 -498.809 -498.534 -158.945 0.154281 0.723648 0.128526 0.660312 
3 1 169.328 -498.674 498.103 0.657917 0.300113 0.640952 0.257407 
6 1 160.904 -171.787 496.502 0.706533 0.472046 0.409068 0.332638 
5 1 -159.928 -165.013 499.614 0.570481 0.023756 0.573114 0.587816 
9 1 167.588 161.72 488.709 0.789207 0.599071 0.105667 0.0842663 
ITEM: TIMESTEP
30000
ITEM: NUMBER OF ATOMS
10
ITEM: BOX BOUNDS pp pp pp
-5.0000000000000000e+02 5.0000000000000000e+02
-5.0000000000000000e+02 5.0000000000000000e+02
-5.0000000000000000e+02 5.0000000000000000e+02
ITEM: ATOMS id type x y z c_q[1] c_q[2] c_q[3] c_q[4] 
4 1 -493.461 -153.867 -496.378 0.343732 0.647616 0.642368 0.223169 
8 1 -163.715 164.41 -498.257 0.733751 0.133494 0.187634 0.639204 
7 1 -494.258 166.338 -493.826 0.661718 0.337415 0.12878 0.657036 
2 1 -158.936 493.19 -484.843 0.491923 0.486381 0.520516 0.500508 
1 1 494.698 496.6 -494.984 0.417821 0.240041 0.844147 0.234996 
10 1 496.943 -497.191 -161.513 0.233576 0.753512 0.0766459 0.609744 
3 1 169.607 -496.207 498.03 0.697152 0.29283 0.593021 0.276687 
6 1 157.751 -168.653 492.076 0.734197 0.476416 0.380633 0.298497 
5 1 -164.211 -157.241 498.986 0.589185 -0.0192327 0.572338 0.570018 
9 1 173.478 163.718 489.54 0.825507 0.536627 0.112293 0.134015 
ITEM: TIMESTEP
40000
ITEM: NUMBER OF ATOMS
10
ITEM: BOX BOUNDS pp pp pp
-5.0000000000000000e+02 5.0000000000000000e+02
-5.0000000000000000e+02 5.0000000000000000e+02
-5.0000000000000000e+02 5.0000000000000000e+02
ITEM: ATOMS id type x y z c_q[1] c_q[2] c_q[3] c_q[4] 
3 1 170.883 -497.447 -498.896 0.681264 0.200763 0.634953 0.303986 
4 1 -494.2 -154.427 499.368 0.343396 0.611507 0.673193 0.234412 
7 1 -497.618 165.358 -496.852 0.662221 0.343049 0.143532 0.650523 
1 1 -499.951 490.46 -493.386 0.469962 0.248988 0.814234 0.23273 
2 1 -163.771 495.186 -482.112 0.506837 0.489793 0.502002 0.501212 
10 1 498.605 -495.458 -161.693 0.25124 0.766524 0.102197 0.58213 
6 1 151.194 -167.099 488.266 0.743285 0.49234 0.345823 0.292464 
5 1 -165.208 -152.337 497.443 0.564811 -0.057157 0.579018 0.585201 
8 1 -163.071 163.878 498.268 0.741477 0.139401 0.21921 0.618648 
9 1 169.386 165.023 485.805 0.815442 0.554898 0.0859174 0.140573 
ITEM: TIMESTEP
50000
ITEM: NUMBER OF ATOMS
10
ITEM: BOX BOUNDS pp pp pp
-5.0000000000000000e+02 5.0000000000000000e+02
-5.0000000000000000e+02 5.0000000000000000e+02
-5.0000000000000000e+02 5.0000000000000000e+02
ITEM: ATOMS id type x y z c_q[1] c_q[2] c_q[3] c_q[4] 
4 1 -491.341 -152.655 -499.04 0.33795 0.595762 0.673725 0.277402 
8 1 -160.824 165.491 -495.654 0.740945 0.125556 0.235355 0.616315 
7 1 -496.276 171.683 -496.241 0.662891 0.366461 0.155122 0.634208 
2 1 -166.384 491.586 -494.257 0.48493 0.487686 0.500532 0.525808 
1 1 498.596 488.747 -493.619 0.455849 0.21749 0.831653 0.230767 
10 1 494.463 -495.74 -166.486 0.247217 0.766837 0.124266 0.57914 
3 1 173.588 -498.127 496.006 0.701324 0.180892 0.612294 0.317049 
5 1 -167.345 -156.973 494.895 0.566225 -0.0227615 0.580368 0.584845 
6 1 150.078 -167.423 490.171 0.745167 0.445199 0.375813 0.324481 
9 1 163.839 163.023 486.789 0.820296 0.552115 0.0847267 0.122904 
ITEM: TIMESTEP
60000
ITEM: NUMBER OF ATOMS
10
ITEM: BOX BOUNDS pp pp pp
-5.0000000000000000e+02 5.0000000000000000e+02
-5.0000000000000000e+02 5.0000000000000000e+02
-5.0000000000000000e+02 5.0000000000000000e+02
ITEM: ATOMS id type x y z c_q[1] c_q[2] c_q[3] c_q[4] 
4 1 -495.125 -153.821 -499.438 0.309137 0.600587 0.694938 0.246558 
8 1 -155.474 164.941 -495.655 0.760211 0.146083 0.261902 0.576321 
7 1 -498.506 166.763 -496.168 0.723938 0.328062 0.135199 0.591617 
1 1 497.183 484.573 -495.594 0.440055 0.247527 0.825261 0.253033 
10 1 490.339 -496.875 -159.44 0.226088 0.796385 0.115647 0.548891 
3 1 175.826 -498.681 494.935 0.649231 0.181862 0.642293 0.364534 
6 1 144.713 -168.822 490.335 0.727613 0.428097 0.409272 0.346134 
5 1 -164.506 -157.668 496.628 0.564034 -0.0194119 0.572439 0.594813 
9 1 159.901 157.545 485.785 0.828026 0.548097 0.0751286 0.091206 
2 1 -166.972 497.397 498.158 0.470271 0.45244 0.554797 0.516085 
ITEM: TIMESTEP
70000
ITEM: NUMBER OF ATOMS
10
ITEM: BOX BOUNDS pp pp pp
-5.0000000000000000e+02 5.0000000000000000e+02
-5.0000000000000000e+02 5.0000000000000000e+02
-5.0000000000000000e+02 5.0000000000000000e+02
ITEM: ATOMS id type x y z c_q[1] c_q[2] c_q[3] c_q[4] 
7 1 -495.174 164.075 -498.4 0.732276 0.286863 0.0972164 0.609943 
8 1 -155.289 165.248 -492.781 0.741611 0.139154 0.28218 0.592473 
1 1 491.252 481.926 -493.584 0.45 0.28078 0.799165 0.282841 
10 1 486.648 -492.596 -158.052 0.245998 0.787499 0.0677409 0.561018 
3 1 175.909 -496.803 495.675 0.662647 0.243173 0.634196 0.315535 
6 1 142.574 -170.833 486.133 0.723671 0.436685 0.413264 0.338849 
4 1 -498.244 -149.465 498.692 0.325987 0.602247 0.684659 0.249547 
5 1 -161.809 -160.443 492.778 0.540724 -0.068846 0.599713 0.585852 
9 1 157.642 160.396 489.636 0.8323 0.528543 0.119002 0.117293 
2 1 -167.422 498.427 491.746 0.47035 0.451471 0.556818 0.514683 
ITEM: TIMESTEP
80000
ITEM: NUMBER OF ATOMS
10
ITEM: BOX BOUNDS pp pp pp
-5.0000000000000000e+02 5.0000000000000000e+02
-5.0000000000000000e+02 5.0000000000000000e+02
-5.0000000000000000e+02 5.0000000000000000e+02
ITEM: ATOMS id type x y z c_q[1] c_q[2] c_q[3] c_q[4] 
4 1 497.167 -148.372 -500.145 0.342513 0.649433 0.631139 0.250169 
7 1 499.962 164.274 -497.79 0.743015 0.314184 0.0683952 0.586975 
8 1 -162.493 167.641 -490.068 0.709408 0.149951 0.310219 0.614833 
1 1 488.93 482.782 -493.145 0.51529 0.253868 0.776295 0.259602 
10 1 484.713 -492.881 -160.478 0.262925 0.776425 0.0388792 0.571422 
3 1 182.267 -498.827 496.767 0.665975 0.25607 0.625817 0.315053 
6 1 142.078 -173.918 492.296 0.726522 0.435755 0.386211 0.364861 
5 1 -158.466 -159.859 499.027 0.53018 2.82246e-05 0.593838 0.605199 
9 1 159.988 165.596 494.166 0.823411 0.550974 0.118394 0.066366 
2 1 -170.425 498.276 492.635 0.450513 0.412408 0.552189 0.56749 
ITEM: TIMESTEP
90000
ITEM: NUMBER OF ATOMS
10
ITEM: BOX BOUNDS pp pp pp
-5.0000000000000000e+02 5.0000000000000000e+02
-5.0000000000000000e+02 5.0000000000000000e+02
-5.0000000000000000e+02 5.0000000000000000e+02
ITEM: ATOMS id type x y z c_q[1] c_q[2] c_q[3] c_q[4] 
5 1 -156.052 -160.807 -494.43 0.531298 -0.0202661 0.609218 0.588358 
4 1 499.743 -148.11 -497.586 0.307556 0.62949 0.662635 0.264701 
8 1 -170.888 164.792 -487.701 0.719227 0.109189 0.266661 0.632204 
1 1 485.181 482.25 -489.521 0.51869 0.221773 0.766573 0.306827 
10 1 489.723 -497.716 -163.824 0.270964 0.786299 0.0320656 0.554332 
2 1 -171.724 -500.083 491.387 0.438028 0.391242 0.587761 0.556416 
3 1 186.513 -496.54 500.056 0.643577 0.239855 0.654382 0.316325 
6 1 147.177 -176.126 483.162 0.751785 0.417842 0.391213 0.327385 
7 1 -497.708 164.196 497.763 0.768775 0.296955 0.0972777 0.557979 
9 1 163.206 165.913 497.561 0.822833 0.548229 0.14438 0.0393047 
ITEM: TIMESTEP
100000
ITEM: NUMBER OF ATOMS
10
ITEM: BOX BOUNDS pp pp pp
-5.0000000000000000e+02 5.0000000000000000e+02
-5.0000000000000000e+02 5.0000000000000000e+02
-5.0000000000000000e+02 5.0000000000000000e+02
ITEM: ATOMS id type x y z c_q[1] c_q[2] c_q[3] c_q[4] 
4 1 -497.738 -144.36 -498.944 0.292517 0.638352 0.670561 0.239348 
5 1 -159.838 -161.829 -494.719 0.531239 -0.00310176 0.606279 0.591778 
8 1 -166.849 166.54 -489.411 0.71041 0.130068 0.287359 0.629146 
1 1 483.863 483.775 -492.49 0.559516 0.226513 0.738897 0.299443 
10 1 490.027 -498.802 -162.785 0.317156 0.767354 0.0131242 0.557142 
3 1 184.662 -497.277 499.009 0.663562 0.224986 0.650122 0.293951 
6 1 146.465 -182.169 482.716 0.749106 0.451259 0.398841 0.275918 
7 1 499.812 165.366 495.834 0.7889 0.283387 0.0769678 0.539819 
9 1 155.202 172.655 496.788 0.827724 0.532635 0.176482 0.00517483 
2 1 -175.502 498.914 492.533 0.475781 0.356952 0.577546 0.559158 
ITEM: TIMESTEP
110000
ITEM: NUMBER OF ATOMS
10
ITEM: BOX BOUNDS pp pp pp
-5.0000000000000000e+02 5.0000000000000000e+02
-5.0000000000000000e+02 5.0000000000000000e+02
-5.0000000000000000e+02 5.0000000000000000e+02
ITEM: ATOMS id type x y z c_q[1] c_q[2] c_q[3] c_q[4] 
4 1 -497.122 -147.607 -499.645 0.235072 0.61239 0.706415 0.265891 
5 1 -161.004 -159.052 -495.182 0.556267 0.0285053 0.599679 0.574577 
8 1 -171.743 163.992 -486.488 0.764597 0.0623887 0.254977 0.58863 
9 1 153.491 169.533 -495.977 0.82103 0.539519 0.184661 -0.0269886 
3 1 182.93 497.359 -497.399 0.687184 0.284927 0.602111 0.289928 
1 1 481.384 484.334 -494.084 0.536527 0.2663 0.73838 0.309868 
10 1 489.092 -496.354 -165.836 0.326762 0.759787 0.0133362 0.561936 
6 1 150.77 -185.944 488.126 0.747951 0.483379 0.373546 0.259571 
7 1 -498.503 167.423 496.439 0.795387 0.305879 0.106456 0.512312 
2 1 -174.51 496.608 490.271 0.463208 0.387764 0.57082 0.556095 
ITEM: TIMESTEP
120000
ITEM: NUMBER OF ATOMS
10
ITEM: BOX BOUNDS pp pp pp
-5.0000000000000000e+02 5.0000000000000000e+02
-5.0000000000000000e+02 5.0000000000000000e+02
-5.0000000000000000e+02 5.0000000000000000e+02
ITEM: ATOMS id type x y z c_q[1] c_q[2] c_q[3] c_q[4] 
3 1 182.649 498.942 -498.876 0.693961 0.334543 0.564446 0.29648 
4 1 -495.527 -150.088 -496.243 0.220367 0.57602 0.734076 0.284205 
5 1 -157.765 -155.4 -495.043 0.590581 0.0657712 0.560633 0.576697 
8 1 -171.746 165.082 -490.339 0.771043 0.0603476 0.267585 0.574674 
9 1 156.799 169.78 -499.2 0.84048 0.509292 0.183325 -0.0246111 
1 1 479.785 485.117 -492.531 0.572953 0.301523 0.705926 0.287189 
10 1 485.815 -493.448 -167.461 0.367891 0.731366 -0.0266496 0.573628 
6 1 154.168 -183.871 489.468 0.75014 0.503235 0.368051 0.220415 
7 1 -500.141 169.709 491.927 0.783809 0.306075 0.102954 0.530436 
2 1 -169.63 498.118 490.69 0.488179 0.40981 0.554911 0.534613 
ITEM: TIMESTEP
130000
ITEM: NUMBER OF ATOMS
10
ITEM: BOX BOUNDS pp pp pp
-5.0000000000000000e+02 5.0000000000000000e+02
-5.0000000000000000e+02 5.0000000000000000e+02
-5.0000000000000000e+02 5.0000000000000000e+02
ITEM: ATOMS id type x y z c_q[1] c_q[2] c_q[3] c_q[4] 
4 1 -496.183 -146.972 -498.319 0.212371 0.576949 0.725614 0.309051 
5 1 -154.641 -157.639 -493.974 0.565953 0.0994086 0.573262 0.584111 
8 1 -174.694 165.232 -489.685 0.779553 0.034341 0.228793 0.582041 
3 1 181.145 493.051 -495.557 0.690239 0.370599 0.565776 0.257144 
1 1 477.447 481.609 -495.922 0.609429 0.302287 0.691593 0.242729 
10 1 487.724 -493.947 -169.579 0.370258 0.731772 -0.0663105 0.56835 
6 1 152.346 -182.024 488.16 0.752598 0.497577 0.354639 0.245445 
7 1 496.555 163.774 490.183 0.790266 0.323054 0.0538645 0.517894 
9 1 151.691 174.005 497.605 0.845679 0.508259 0.161937 0.0166061 
2 1 -175.152 495.837 491.776 0.492158 0.400192 0.560333 0.532591 
ITEM: TIMESTEP
140000
ITEM: NUMBER OF ATOMS
10
ITEM: BOX BOUNDS pp pp pp
-5.0000000000000000e+02 5.0000000000000000e+02
-5.0000000000000000e+02 5.0000000000000000e+02
-5.0000000000000000e+02 5.0000000000000000e+02
ITEM: ATOMS id type x y z c_q[1] c_q[2] c_q[3] c_q[4] 
4 1 498.843 -150.378 -498.345 0.208234 0.548945 0.736803 0.335289 
5 1 -155.747 -160.291 -494.049 0.605771 0.0875029 0.528538 0.588246 
8 1 -170.879 158.644 -495.847 0.783964 0.0661935 0.264071 0.557929 
1 1 473.935 484.746 -494.316 0.619734 0.296019 0.693575 0.217385 
10 1 488.522 -493.381 -164.914 0.359425 0.745354 -0.0468597 0.559523 
6 1 153.577 -179.791 489.797 0.715136 0.499418 0.403353 0.27653 
7 1 493.32 164.801 488.805 0.807002 0.291505 0.0766209 0.507841 
9 1 154.732 173.958 491.226 0.837859 0.514691 0.181882 -0.00223616 
2 1 -173.826 490.426 489.769 0.472332 0.366633 0.553537 0.579724 
3 1 182.303 489.03 497.703 0.70131 0.35833 0.560795 0.255485 
ITEM: TIMESTEP
150000
ITEM: NUMBER OF ATOMS
10
ITEM: BOX BOUNDS pp pp pp
-5.0000000000000000e+02 5.0000000000000000e+02
-5.0000000000000000e+02 5.0000000000000000e+02
-5.0000000000000000e+02 5.0000000000000000e+02
ITEM: ATOMS id type x y z c_q[1] c_q[2] c_q[3] c_q[4] 
5 1 -153.596 -157.881 -494.286 0.587702 0.0983257 0.54539 0.589482 
8 1 -169.331 158.735 -496.548 0.775889 0.0334809 0.23502 0.584501 
1 1 479.064 486.924 -497.038 0.597519 0.272753 0.722306 0.216451 
10 1 486.726 -492.164 -165.721 0.39962 0.711582 -0.0981083 0.5695 
6 1 152.436 -181.603 486.632 0.723696 0.493933 0.380557 0.295755 
4 1 495.293 -153.156 495.18 0.211176 0.538274 0.747858 0.326149 
7 1 486.246 164.511 493.577 0.807592 0.296659 0.0349193 0.508497 
9 1 155.618 174.775 489.003 0.836009 0.527239 0.147998 0.0347018 
2 1 -175.412 491.763 492.057 0.431856 0.368728 0.580374 0.5837 
3 1 183.98 489.72 492.552 0.717164 0.32817 0.537309 0.298797 
ITEM: TIMESTEP
160000
ITEM: NUMBER OF ATOMS
10
ITEM: BOX BOUNDS pp pp pp
-5.0000000000000000e+02 5.0000000000000000e+02
-5.0000000000000000e+02 5.0000000000000000e+02
-5.0000000000000000e+02 5.0000000000000000e+02
ITEM: ATOMS id type x y z c_q[1] c_q[2] c_q[3] c_q[4] 
5 1 -150.942 -159.567 -493.882 0.556416 0.0612558 0.577134 0.594614 
8 1 -169.318 156.563 -496.057 0.787526 0.0809356 0.206021 0.575159 
1 1 478.884 491.226 -490.322 0.588034 0.281582 0.733855 0.190746 
10 1 492.263 -495.266 -167.672 0.397256 0.755341 -0.0652586 0.517096 
6 1 155.03 -183.851 485.803 0.698606 0.465983 0.370682 0.396742 
4 1 493.289 -148.086 493.584 0.195399 0.554491 0.730965 0.34648 
7 1 481.461 162.011 497.813 0.807672 0.306365 -0.00397138 0.503777 
9 1 155.044 171.221 490.472 0.860581 0.475706 0.176366 0.0447138 
2 1 -172.418 490.523 488.625 0.427003 0.342896 0.584818 0.598397 
3 1 184.859 485.451 493.073 0.687051 0.336997 0.549564 0.335222 
ITEM: TIMESTEP
170000
ITEM: NUMBER OF ATOMS
10
ITEM: BOX BOUNDS pp pp pp
-5.0000000000000000e+02 5.0000000000000000e+02
-5.0000000000000000e+02 5.0000000000000000e+02
-5.0000000000000000e+02 5.0000000000000000e+02
ITEM: ATOMS id type x y z c_q[1] c_q[2] c_q[3] c_q[4] 
5 1 -148.947 -164.013 -494.745 0.559381 0.0308024 0.600781 0.570269 
8 1 -176.943 155.647 -498.324 0.799721 0.112345 0.20202 0.554087 
1 1 480.758 490.072 -491.429 0.572191 0.308318 0.737301 0.184187 
10 1 489.468 -493.359 -172.471 0.351241 0.781574 -0.0299501 0.51466 
6 1 151.763 -178.88 486.564 0.706432 0.453562 0.360224 0.406784 
4 1 494.051 -152.078 498.255 0.163152 0.581786 0.719048 0.343332 
7 1 474.812 155.945 498.477 0.803129 0.353287 -0.00339785 0.479752 
9 1 156.067 173.336 492.544 0.849486 0.487167 0.202016 0.0151996 
2 1 -174.313 490.3 491.551 0.457878 0.32849 0.520886 0.641187 
3 1 181.662 489.636 490.853 0.70046 0.339668 0.545022 0.311339 
ITEM: TIMESTEP
180000
ITEM: NUMBER OF ATOMS
10
ITEM: BOX BOUNDS pp pp pp
-5.0000000000000000e+02 5.0000000000000000e+02
-5.0000000000000000e+02 5.0000000000000000e+02
-5.0000000000000000e+02 5.0000000000000000e+02
ITEM: ATOMS id type x y z c_q[1] c_q[2] c_q[3] c_q[4] 
8 1 -178.916 161.943 -500.139 0.779795 0.172609 0.248331 0.54814 
7 1 474.929 157.048 -499.989 0.792237 0.391592 0.00820594 0.46792 
1 1 477.061 492.457 -492.557 0.561038 0.349256 0.739484 0.128137 
10 1 485.867 -494.71 -165.82 0.333285 0.777063 -0.0455729 0.531993 
6 1 152.884 -181.03 485.361 0.738873 0.418568 0.373371 0.373445 
5 1 -144.469 -160.186 497.788 0.541862 -0.021083 0.576922 0.610821 
4 1 496.224 -153.225 496.415 0.158364 0.560478 0.737274 0.342364 
9 1 150.53 174.192 493.895 0.861135 0.458767 0.215333 0.0401332 
2 1 -175.136 487.42 493.915 0.450384 0.332519 0.532822 0.634576 
3 1 182.053 492.045 486.111 0.70816 0.309612 0.531048 0.347329 
ITEM: TIMESTEP
190000
ITEM: NUMBER OF ATOMS
10
ITEM: BOX BOUNDS pp pp pp
-5.0000000000000000e+02 5.0000000000000000e+02
-5.0000000000000000e+02 5.0000000000000000e+02
-5.0000000000000000e+02 5.0000000000000000e+02
ITEM: ATOMS id type x y z c_q[1] c_q[2] c_q[3] c_q[4] 
1 1 474.744 489.018 -495.214 0.529805 0.360253 0.757377 0.126113 
10 1 491.901 -493.645 -163.679 0.380024 0.773159 -0.0766427 0.501929 
6 1 153.371 -185.901 487.067 0.703295 0.463342 0.402994 0.358171 
5 1 -143.535 -157.257 -500.071 0.533883 -0.026583 0.578405 0.616206 
4 1 495.031 -151.943 496.87 0.139254 0.581715 0.73739 0.313801 
8 1 -180.67 158.98 495.316 0.763275 0.15861 0.241831 0.57773 
7 1 480.712 159.41 -499.82 0.769916 0.404369 0.0181981 0.493339 
9 1 152.418 176.975 490.961 0.877438 0.440766 0.189249 0.00351402 
2 1 -177.393 484.107 498.06 0.425758 0.32974 0.571901 0.618814 
3 1 184.172 487.839 483.971 0.695991 0.334421 0.545569 0.325751 
ITEM: TIMESTEP
200000
ITEM: NUMBER OF ATOMS
10
ITEM: BOX BOUNDS pp pp pp
-5.0000000000000000e+02 5.0000000000000000e+02
-5.0000000000000000e+02 5.0000000000000000e+02
-5.0000000000000000e+02 5.0000000000000000e+02
ITEM: ATOMS id type x y z c_q[1] c_q[2] c_q[3] c_q[4] 
5 1 -140.138 -155.261 -499.837 0.5583 0.0133207 0.548267 0.622516 
7 1 480.789 158.808 -499.001 0.739206 0.454489 -0.00993304 0.496906 
1 1 475.666 495.616 -492.833 0.525385 0.373308 0.749985 0.14878 
10 1 489.179 -495.256 -164.381 0.366779 0.750386 -0.0870912 0.542963 
6 1 156.006 -186.033 483.315 0.708187 0.462575 0.410068 0.341085 
4 1 493.506 -155.948 497.14 0.126263 0.523679 0.767304 0.347941 
8 1 -181.258 160.746 491.015 0.759257 0.180423 0.257687 0.569713 
9 1 151.653 181.839 493.237 0.869568 0.44918 0.196923 -0.0575332 
2 1 -184.717 475.785 498.033 0.378585 0.345937 0.581608 0.631453 
3 1 185.64 485.715 478.573 0.713957 0.309403 0.529393 0.338051 
ITEM: TIMESTEP
210000
ITEM: NUMBER OF ATOMS
10
ITEM: BOX BOUNDS pp pp pp
-5.0000000000000000e+02 5.0000000000000000e+02
-5.0000000000000000e+02 5.0000000000000000e+02
-5.0000000000000000e+02 5.0000000000000000e+02
ITEM: ATOMS id type x y z c_q[1] c_q[2] c_q[3] c_q[4] 
5 1 -142.139 -152.564 -497.273 0.526067 0.0373082 0.556876 0.641678 
7 1 476.901 158.351 -497.828 0.777772 0.431656 -0.0359631 0.455468 
2 1 -184.121 480.498 -499.475 0.397147 0.30792 0.578903 0.64213 
1 1 472.581 494.785 -492.963 0.504998 0.353438 0.772786 0.151195 
10 1 489.533 -498.285 -160.341 0.362067 0.769 -0.0670419 0.522544 
6 1 153.996 -185.196 482.448 0.714682 0.425908 0.408201 0.375772 
4 1 498.942 -156.461 495.427 0.131663 0.519435 0.7782 0.327502 
8 1 -179.625 157.669 488.506 0.737454 0.18049 0.26939 0.592464 
9 1 150.852 174.137 489.273 0.883846 0.412027 0.221461 0.0023287 
3 1 192.696 480.803 480.244 0.707519 0.343707 0.526845 0.322052 
ITEM: TIMESTEP
220000
ITEM: NUMBER OF ATOMS
10
ITEM: BOX BOUNDS pp pp pp
-5.0000000000000000e+02 5.0000000000000000e+02
-5.0000000000000000e+02 5.0000000000000000e+02
-5.0000000000000000e+02 5.0000000000000000e+02
ITEM: ATOMS id type x y z c_q[1] c_q[2] c_q[3] c_q[4] 
5 1 -141.006 -155.847 -496.55 0.499911 0.0152402 0.569661 0.652184 
2 1 -183.347 477.788 -497.24 0.42718 0.266209 0.547729 0.668314 
1 1 474.153 499.099 -489.673 0.501711 0.360421 0.770389 0.157745 
10 1 490.087 496.527 -166.318 0.356748 0.771302 -0.0849041 0.520207 
6 1 155.054 -180.506 479.49 0.739677 0.445914 0.330065 0.380915 
4 1 -498.175 -152.915 499.479 0.12921 0.557902 0.744876 0.342359 
8 1 -174.033 159.275 492.77 0.689338 0.191748 0.345566 0.607149 
7 1 474.473 157.282 496.649 0.756165 0.483238 0.0239958 0.44059 
9 1 153.78 169.768 487.696 0.880473 0.427374 0.203852 0.0237147 
3 1 196.676 486.696 473.602 0.695418 0.334371 0.545732 0.326751 
ITEM: TIMESTEP
230000
ITEM: NUMBER OF ATOMS
10
ITEM: BOX BOUNDS pp pp pp
-5.0000000000000000e+02 5.0000000000000000e+02
-5.0000000000000000e+02 5.0000000000000000e+02
-5.0000000000000000e+02 5.0000000000000000e+02
ITEM: ATOMS id type x y z c_q[1] c_q[2] c_q[3] c_q[4] 
1 1 475.796 -499.405 -491.097 0.538436 0.355752 0.739314 0.192201 
5 1 -139.34 -154.855 -496.612 0.514454 0.0491934 0.544069 0.660989 
2 1 -183.942 477.469 499.607 0.397802 0.235555 0.582795 0.668295 
10 1 490.811 495.624 -166.255 0.335814 0.782946 -0.0783347 0.517773 
6 1 156.673 -175.825 483.714 0.72405 0.408013 0.341327 0.439059 
4 1 -497.578 -152.651 497.147 0.144711 0.638021 0.679615 0.33183 
8 1 -175.302 157.234 493.827 0.756876 0.194354 0.309708 0.541707 
7 1 470.964 156.493 497.397 0.762449 0.467053 0.0133461 0.44761 
9 1 150.269 166.627 488.398 0.889489 0.432595 0.14714 -0.00444885 
3 1 194.455 485.06 476.273 0.668645 0.326299 0.548082 0.382164 
ITEM: TIMESTEP
240000
ITEM: NUMBER OF ATOMS
10
ITEM: BOX BOUNDS pp pp pp
-5.0000000000000000e+02 5.0000000000000000e+02
-5.0000000000000000e+02 5.0000000000000000e+02
-5.0000000000000000e+02 5.0000000000000000e+02
ITEM: ATOMS id type x y z c_q[1] c_q[2] c_q[3] c_q[4] 
1 1 475.404 -495.741 -489.852 0.534987 0.373285 0.731226 0.19939 
5 1 -144.539 -155.644 -491.609 0.543277 0.0352512 0.521497 0.657 
8 1 -177.413 157.158 -500.135 0.756794 0.144266 0.293569 0.565923 
10 1 489.072 492.555 -162.113 0.348373 0.773558 -0.0289942 0.528586 
6 1 153.75 -174.81 480.088 0.740703 0.411662 0.319729 0.423872 
4 1 -500.218 -152.389 496.636 0.127674 0.596703 0.705823 0.359804 
7 1 469.846 154.108 497.948 0.767618 0.45413 -0.0354692 0.450855 
9 1 152.082 170.307 489.341 0.909636 0.384437 0.149947 0.0478047 
2 1 -183.446 480.931 498.241 0.469013 0.216181 0.539775 0.664782 
3 1 191.487 481.724 476.84 0.661961 0.33621 0.549305 0.383451 
ITEM: TIMESTEP
250000
ITEM: NUMBER OF ATOMS
10
ITEM: BOX BOUNDS pp pp pp
-5.0000000000000000e+02 5.0000000000000000e+02
-5.0000000000000000e+02 5.0000000000000000e+02
-5.0000000000000000e+02 5.0000000000000000e+02
ITEM: ATOMS id type x y z c_q[1] c_q[2] c_q[3] c_q[4] 
1 1 471.578 -495.417 -491.944 0.575408 0.336123 0.716232 0.207215 
5 1 -145.417 -158.534 -494.454 0.554862 0.0439721 0.494505 0.667577 
8 1 -176.076 158.291 -496.935 0.786952 0.09738 0.274518 0.543933 
10 1 489.855 485.362 -163.403 0.373993 0.746474 -0.0610674 0.54697 
6 1 155.162 -177.319 478.164 0.785376 0.399969 0.291408 0.371873 
4 1 497.181 -158.362 491.137 0.165999 0.616167 0.692123 0.337266 
7 1 475.427 152.545 494.16 0.75806 0.438198 -0.0752116 0.477148 
9 1 152.633 174.336 487.915 0.911081 0.391132 0.124764 0.0371628 
2 1 -183.258 480.556 498.957 0.467167 0.262908 0.533196 0.654474 
3 1 193.15 479.289 482.586 0.677162 0.319288 0.54046 0.38394 
ITEM: TIMESTEP
260000
ITEM: NUMBER OF ATOMS
10
ITEM: BOX BOUNDS pp pp pp
-5.0000000000000000e+02 5.0000000000000000e+02
-5.0000000000000000e+02 5.0000000000000000e+02
-5.0000000000000000e+02 5.0000000000000000e+02
ITEM: ATOMS id type x y z c_q[1] c_q[2] c_q[3] c_q[4] 
1 1 472.702 -497.385 -485.999 0.584325 0.353226 0.695732 0.223053 
5 1 -143.68 -156.823 -490.565 0.5901 0.0555304 0.47684 0.649093 
8 1 -177.349 159.377 -497.195 0.790006 0.106425 0.242845 0.552803 
10 1 489.293 485.975 -164.846 0.358061 0.77084 -0.121327 0.512717 
6 1 153.603 -179.988 476.493 0.761312 0.392945 0.327775 0.398198 
4 1 -498.308 -157.065 492.594 0.122432 0.601488 0.710552 0.344004 
7 1 471.833 152.936 497.052 0.767839 0.435069 -0.0751596 0.464209 
9 1 155.286 174.403 492.252 0.895984 0.430721 0.101021 0.0385703 
2 1 -177.84 478.551 499.551 0.481679 0.276408 0.538518 0.633705 
3 1 190.218 482.443 482.709 0.645729 0.333061 0.550963 0.410541 
ITEM: TIMESTEP
270000
ITEM: NUMBER OF ATOMS
10
ITEM: BOX BOUNDS pp pp pp
-5.0000000000000000e+02 5.0000000000000000e+02
-5.0000000000000000e+02 5.0000000000000000e+02
-5.0000000000000000e+02 5.0000000000000000e+02
ITEM: ATOMS id type x y z c_q[1] c_q[2] c_q[3] c_q[4] 
1 1 478.103 -497.782 -486.731 0.634304 0.324291 0.674604 0.193399 
5 1 -143.95 -152.33 -490.971 0.587184 0.0667266 0.497848 0.634751 
8 1 -178.755 156.948 -496.602 0.761606 0.0869996 0.247462 0.592579 
2 1 -174.338 473.922 -498.258 0.459315 0.30291 0.56223 0.617391 
10 1 487.783 486.649 -165.01 0.357686 0.772337 -0.100915 0.515143 
6 1 155.797 -173.973 478.334 0.754784 0.408657 0.306627 0.411436 
4 1 -499.379 -158.374 492.65 0.128298 0.577061 0.715743 0.371823 
7 1 473.378 154.654 495.606 0.751723 0.414559 -0.12003 0.498645 
9 1 155.713 172.792 495.458 0.900716 0.42155 0.0655418 0.0819131 
3 1 187.814 480.102 480.088 0.668633 0.326295 0.518395 0.421579 
ITEM: TIMESTEP
280000
ITEM: NUMBER OF ATOMS
10
ITEM: BOX BOUNDS pp pp pp
-5.0000000000000000e+02 5.0000000000000000e+02
-5.0000000000000000e+02 5.0000000000000000e+02
-5.0000000000000000e+02 5.0000000000000000e+02
ITEM: ATOMS id type x y z c_q[1] c_q[2] c_q[3] c_q[4] 
1 1 477.835 -497.568 -480.576 0.604216 0.301969 0.707386 0.20819 
5 1 -142.338 -147.663 -493.191 0.565807 0.10783 0.514398 0.635319 
8 1 -180.006 156.543 -497.196 0.736683 0.0755416 0.235653 0.629333 
10 1 485.596 486.961 -167.694 0.343884 0.801731 -0.0062103 0.488808 
6 1 155.447 -175.557 475.047 0.766446 0.451735 0.260528 0.374994 
4 1 497.623 -156.435 488.822 0.143451 0.598129 0.68022 0.398704 
7 1 475.986 152.222 492.696 0.7442 0.372405 -0.17673 0.525592 
9 1 157.287 173.955 499.564 0.891822 0.434253 0.0609581 0.111184 
2 1 -174.203 472.237 -499.74 0.446083 0.277189 0.591119 0.612172 
3 1 184.986 483.308 486.355 0.651716 0.348803 0.553581 0.383602 
ITEM: TIMESTEP
290000
ITEM: NUMBER OF ATOMS
10
ITEM: BOX BOUNDS pp pp pp
-5.0000000000000000e+02 5.0000000000000000e+02
-5.0000000000000000e+02 5.0000000000000000e+02
-5.0000000000000000e+02 5.0000000000000000e+02
ITEM: ATOMS id type x y z c_q[1] c_q[2] c_q[3] c_q[4] 
1 1 472.568 -499.131 -478.54 0.640463 0.291331 0.67207 0.230772 
5 1 -145.085 -141.14 -491.977 0.559381 0.0965957 0.514096 0.643014 
8 1 -178.112 158.165 -496.282 0.756839 0.119459 0.245099 0.594012 
10 1 489.015 490.1 -164.632 0.336867 0.797635 -0.0335287 0.499175 
6 1 156.111 -175.382 476.918 0.822821 0.433203 0.240159 0.27861 
4 1 495.296 -155.148 493.045 0.132828 0.643366 0.656652 0.370465 
7 1 476.855 157.068 492.204 0.768736 0.372173 -0.130429 0.503507 
9 1 156.75 176.51 495.597 0.877619 0.46201 0.104087 0.0741423 
2 1 -181.936 473.065 495.439 0.472789 0.295771 0.550582 0.621169 
3 1 184.518 482.105 486.716 0.628572 0.335117 0.583714 0.389707 
ITEM: TIMESTEP
300000
ITEM: NUMBER OF ATOMS
10
ITEM: BOX BOUNDS pp pp pp
-5.0000000000000000e+02 5.0000000000000000e+02
-5.0000000000000000e+02 5.0000000000000000e+02
-5.0000000000000000e+02 5.0000000000000000e+02
ITEM: ATOMS id type x y z c_q[1] c_q[2] c_q[3] c_q[4] 
5 1 -132.897 -144.071 -488.765 0.559133 0.162638 0.490776 0.648119 
8 1 -176.12 159.973 -498.212 0.760355 0.120428 0.23515 0.593348 
1 1 467.77 494.416 -476.103 0.621905 0.267784 0.696767 0.236731 
10 1 494.676 489.381 -165.956 0.331191 0.787944 -0.0828547 0.512437 
6 1 156.645 -174.647 478.356 0.810876 0.455695 0.20371 0.30549 
4 1 497.12 -158.001 494.657 0.14302 0.624661 0.63521 0.431106 
7 1 475.419 163.789 490.625 0.78762 0.389652 -0.11249 0.463866 
9 1 158.797 177.166 497.169 0.878782 0.464457 0.0796513 0.0753469 
2 1 -181.2 477.015 496.619 0.45569 0.270724 0.581094 0.617563 
3 1 183.387 483.864 484.232 0.63458 0.338554 0.557771 0.414225 
ITEM: TIMESTEP
310000
ITEM: NUMBER OF ATOMS
10
ITEM: BOX BOUNDS pp pp pp
-5.0000000000000000e+02 5.0000000000000000e+02
-5.0000000000000000e+02 5.0000000000000000e+02
-5.0000000000000000e+02 5.0000000000000000e+02
ITEM: ATOMS id type x y z c_q[1] c_q[2] c_q[3] c_q[4] 
5 1 -128.488 -142.921 -484.283 0.561103 0.106526 0.475731 0.668951 
1 1 472.936 497.744 -480.526 0.605236 0.302434 0.699581 0.229803 
10 1 496.976 490.901 -166.468 0.335309 0.813452 -0.0605116 0.471384 
6 1 160.17 -172.987 474.411 0.811048 0.461926 0.152792 0.324776 
4 1 491.462 -163.595 499.06 0.165745 0.66859 0.593096 0.416838 
8 1 -177.138 159.12 499.046 0.741266 0.141595 0.232312 0.613602 
9 1 158.921 185.79 495.764 0.896345 0.426824 0.076773 0.0921603 
7 1 476.459 166.202 489.345 0.803699 0.36182 -0.10425 0.460745 
2 1 -181.206 475.099 495.881 0.496275 0.260084 0.550134 0.619209 
3 1 182.911 481.512 486.805 0.610168 0.319533 0.587522 0.424748 
ITEM: TIMESTEP
320000
ITEM: NUMBER OF ATOMS
10
ITEM: BOX BOUNDS pp pp pp
-5.0000000000000000e+02 5.0000000000000000e+02
-5.0000000000000000e+02 5.0000000000000000e+02
-5.0000000000000000e+02 5.0000000000000000e+02
ITEM: ATOMS id type x y z c_q[1] c_q[2] c_q[3] c_q[4] 