LAMMPS data file

10 atoms
10 ellipsoids
0 bonds
0 angles
0 dihedrals

1 atom types
0 bond types
0 angle types
0 dihedral types

-500.000000 500.000000 xlo xhi
-500.000000 500.000000 ylo yhi
-500.000000 500.000000 zlo zhi

Masses

1 203166.000000

Atoms

1 1 -500.000000 -500.000000 -500.000000 1 1.000000 3 0.000000
2 1 -166.666667 -500.000000 -500.000000 1 1.000000 4 0.000000
3 1 166.666667 -500.000000 -500.000000 1 1.000000 5 0.000000
4 1 -500.000000 -166.666667 -500.000000 1 1.000000 6 0.000000
5 1 -166.666667 -166.666667 -500.000000 1 1.000000 7 0.000000
6 1 166.666667 -166.666667 -500.000000 1 1.000000 8 0.000000
7 1 -500.000000 166.666667 -500.000000 1 1.000000 9 0.000000
8 1 -166.666667 166.666667 -500.000000 1 1.000000 10 0.000000
9 1 166.666667 166.666667 -500.000000 1 1.000000 11 0.000000
10 1 -500.000000 -500.000000 -166.666667 1 1.000000 12 0.000000

Ellipsoids

1 55.000000 110.000000 110.000000 0.476285 0.515619 0.413586 0.579859
2 55.000000 110.000000 110.000000 0.190670 0.835907 0.371639 0.356074
3 55.000000 110.000000 110.000000 0.401938 0.268904 0.396557 0.780307
4 55.000000 110.000000 110.000000 0.381289 0.704207 0.375071 0.466939
5 55.000000 110.000000 110.000000 0.457982 0.529058 0.662525 0.267228
6 55.000000 110.000000 110.000000 0.061261 0.156255 0.848663 0.501600
7 55.000000 110.000000 110.000000 0.138663 0.215411 0.926213 0.276585
8 55.000000 110.000000 110.000000 0.245881 0.054372 0.415837 0.873880
9 55.000000 110.000000 110.000000 0.545020 0.360947 0.233199 0.719923
10 55.000000 110.000000 110.000000 0.488352 0.676190 0.450687 0.318058




