LAMMPS data file

30 atoms
30 ellipsoids
0 bonds
0 angles
0 dihedrals

1 atom types
0 bond types
0 angle types
0 dihedral types

-500.000000 500.000000 xlo xhi
-500.000000 500.000000 ylo yhi
-500.000000 500.000000 zlo zhi

Masses

1 203166.000000

Atoms

1 1 -500.000000 -500.000000 -500.000000 1 1.000000 3 0.000000
2 1 -250.000000 -500.000000 -500.000000 1 1.000000 4 0.000000
3 1 0.000000 -500.000000 -500.000000 1 1.000000 5 0.000000
4 1 250.000000 -500.000000 -500.000000 1 1.000000 6 0.000000
5 1 -500.000000 -250.000000 -500.000000 1 1.000000 7 0.000000
6 1 -250.000000 -250.000000 -500.000000 1 1.000000 8 0.000000
7 1 0.000000 -250.000000 -500.000000 1 1.000000 9 0.000000
8 1 250.000000 -250.000000 -500.000000 1 1.000000 10 0.000000
9 1 -500.000000 0.000000 -500.000000 1 1.000000 11 0.000000
10 1 -250.000000 0.000000 -500.000000 1 1.000000 12 0.000000
11 1 0.000000 0.000000 -500.000000 1 1.000000 13 0.000000
12 1 250.000000 0.000000 -500.000000 1 1.000000 14 0.000000
13 1 -500.000000 250.000000 -500.000000 1 1.000000 15 0.000000
14 1 -250.000000 250.000000 -500.000000 1 1.000000 16 0.000000
15 1 0.000000 250.000000 -500.000000 1 1.000000 17 0.000000
16 1 250.000000 250.000000 -500.000000 1 1.000000 18 0.000000
17 1 -500.000000 -500.000000 -250.000000 1 1.000000 19 0.000000
18 1 -250.000000 -500.000000 -250.000000 1 1.000000 20 0.000000
19 1 0.000000 -500.000000 -250.000000 1 1.000000 21 0.000000
20 1 250.000000 -500.000000 -250.000000 1 1.000000 22 0.000000
21 1 -500.000000 -250.000000 -250.000000 1 1.000000 23 0.000000
22 1 -250.000000 -250.000000 -250.000000 1 1.000000 24 0.000000
23 1 0.000000 -250.000000 -250.000000 1 1.000000 25 0.000000
24 1 250.000000 -250.000000 -250.000000 1 1.000000 26 0.000000
25 1 -500.000000 0.000000 -250.000000 1 1.000000 27 0.000000
26 1 -250.000000 0.000000 -250.000000 1 1.000000 28 0.000000
27 1 0.000000 0.000000 -250.000000 1 1.000000 29 0.000000
28 1 250.000000 0.000000 -250.000000 1 1.000000 30 0.000000
29 1 -500.000000 250.000000 -250.000000 1 1.000000 31 0.000000
30 1 -250.000000 250.000000 -250.000000 1 1.000000 32 0.000000

Ellipsoids

1 55.000000 110.000000 110.000000 0.381432 0.834863 0.390318 0.071866
2 55.000000 110.000000 110.000000 0.052271 0.192032 0.656185 0.727883
3 55.000000 110.000000 110.000000 0.639381 0.300408 0.409883 0.577012
4 55.000000 110.000000 110.000000 0.954679 0.279143 0.028139 0.099378
5 55.000000 110.000000 110.000000 0.051277 0.986323 0.048485 0.148950
6 55.000000 110.000000 110.000000 0.848080 0.336350 0.407452 0.040145
7 55.000000 110.000000 110.000000 0.064716 0.471137 0.687376 0.548959
8 55.000000 110.000000 110.000000 0.513724 0.574007 0.575297 0.275021
9 55.000000 110.000000 110.000000 0.439651 0.852583 0.048448 0.278320
10 55.000000 110.000000 110.000000 0.582810 0.654219 0.155377 0.456275
11 55.000000 110.000000 110.000000 0.053062 0.237419 0.802665 0.544559
12 55.000000 110.000000 110.000000 0.832827 0.080398 0.256126 0.484082
13 55.000000 110.000000 110.000000 0.669967 0.305824 0.669668 0.095715
14 55.000000 110.000000 110.000000 0.605660 0.532118 0.585969 0.081647
15 55.000000 110.000000 110.000000 0.801802 0.209268 0.556182 0.063107
16 55.000000 110.000000 110.000000 0.243610 0.032853 0.675159 0.695511
17 55.000000 110.000000 110.000000 0.787114 0.278165 0.446939 0.321437
18 55.000000 110.000000 110.000000 0.091938 0.730062 0.609790 0.294472
19 55.000000 110.000000 110.000000 0.394564 0.616041 0.487148 0.476969
20 55.000000 110.000000 110.000000 0.523880 0.436576 0.694853 0.228321
21 55.000000 110.000000 110.000000 0.209730 0.256223 0.841221 0.427447
22 55.000000 110.000000 110.000000 0.705499 0.460564 0.110906 0.527116
23 55.000000 110.000000 110.000000 0.242812 0.222784 0.537348 0.776316
24 55.000000 110.000000 110.000000 0.491066 0.545959 0.501484 0.457490
25 55.000000 110.000000 110.000000 0.301347 0.553135 0.426006 0.649423
26 55.000000 110.000000 110.000000 0.248750 0.471059 0.781089 0.325770
27 55.000000 110.000000 110.000000 0.594876 0.521830 0.603583 0.097488
28 55.000000 110.000000 110.000000 0.049250 0.552295 0.303556 0.774854
29 55.000000 110.000000 110.000000 0.612722 0.435627 0.457410 0.474950
30 55.000000 110.000000 110.000000 0.021356 0.619240 0.694602 0.365532




