LAMMPS data file

10 atoms
10 ellipsoids
0 bonds
0 angles
0 dihedrals

1 atom types
0 bond types
0 angle types
0 dihedral types

-500.000000 500.000000 xlo xhi
-500.000000 500.000000 ylo yhi
-500.000000 500.000000 zlo zhi

Masses

1 203166.000000

Atoms

1 1 -500.000000 -500.000000 -500.000000 1 1.000000 3 0.000000
2 1 -166.666667 -500.000000 -500.000000 1 1.000000 4 0.000000
3 1 166.666667 -500.000000 -500.000000 1 1.000000 5 0.000000
4 1 -500.000000 -166.666667 -500.000000 1 1.000000 6 0.000000
5 1 -166.666667 -166.666667 -500.000000 1 1.000000 7 0.000000
6 1 166.666667 -166.666667 -500.000000 1 1.000000 8 0.000000
7 1 -500.000000 166.666667 -500.000000 1 1.000000 9 0.000000
8 1 -166.666667 166.666667 -500.000000 1 1.000000 10 0.000000
9 1 166.666667 166.666667 -500.000000 1 1.000000 11 0.000000
10 1 -500.000000 -500.000000 -166.666667 1 1.000000 12 0.000000

Ellipsoids

1 55.000000 110.000000 110.000000 0.369477 0.504013 0.482239 0.613925
2 55.000000 110.000000 110.000000 0.262723 0.655047 0.411262 0.576848
3 55.000000 110.000000 110.000000 0.227915 0.887331 0.235385 0.324488
4 55.000000 110.000000 110.000000 0.764719 0.572186 0.195950 0.222287
5 55.000000 110.000000 110.000000 0.772971 0.122497 0.028375 0.621856
6 55.000000 110.000000 110.000000 0.623280 0.230375 0.719374 0.202362
7 55.000000 110.000000 110.000000 0.197988 0.521839 0.803001 0.208984
8 55.000000 110.000000 110.000000 0.824237 0.110530 0.552744 0.053769
9 55.000000 110.000000 110.000000 0.762388 0.037002 0.477054 0.435678
10 55.000000 110.000000 110.000000 0.182434 0.872821 0.263576 0.368006




