ITEM: TIMESTEP
0
ITEM: NUMBER OF ATOMS
10
ITEM: BOX BOUNDS pp pp pp
-5.0000000000000000e+02 5.0000000000000000e+02
-5.0000000000000000e+02 5.0000000000000000e+02
-5.0000000000000000e+02 5.0000000000000000e+02
ITEM: ATOMS id type x y z c_q[1] c_q[2] c_q[3] c_q[4] 
1 1 -500 -500 -500 0.369477 0.504013 0.482239 0.613925 
2 1 -166.667 -500 -500 0.262723 0.655047 0.411262 0.576848 
3 1 166.667 -500 -500 0.227915 0.887331 0.235385 0.324488 
4 1 -500 -166.667 -500 0.764719 0.572186 0.19595 0.222287 
5 1 -166.667 -166.667 -500 0.772971 0.122497 0.028375 0.621856 
6 1 166.667 -166.667 -500 0.62328 0.230375 0.719374 0.202362 
7 1 -500 166.667 -500 0.197988 0.521839 0.803001 0.208984 
8 1 -166.667 166.667 -500 0.824237 0.11053 0.552744 0.053769 
9 1 166.667 166.667 -500 0.762388 0.037002 0.477054 0.435678 
10 1 -500 -500 -166.667 0.182434 0.872821 0.263576 0.368006 
ITEM: TIMESTEP
10000
ITEM: NUMBER OF ATOMS
10
ITEM: BOX BOUNDS pp pp pp
-5.0000000000000000e+02 5.0000000000000000e+02
-5.0000000000000000e+02 5.0000000000000000e+02
-5.0000000000000000e+02 5.0000000000000000e+02
ITEM: ATOMS id type x y z c_q[1] c_q[2] c_q[3] c_q[4] 
2 1 -166.845 499.232 -498.868 0.22574 0.728668 0.364768 0.533881 
3 1 163.008 -497.037 -498.287 0.22564 0.901788 0.22378 0.292897 
4 1 500.212 -166.387 -498.48 0.772704 0.542569 0.207455 0.255948 
7 1 -497.316 168.051 -493.012 0.167271 0.514459 0.795382 0.273351 
1 1 498.887 497.576 -496.381 0.351561 0.499669 0.465858 0.640088 
10 1 -497.787 499.921 -162.126 0.207092 0.856036 0.268715 0.39001 
5 1 -163.273 -169.131 495.416 0.777455 0.0575691 0.0165459 0.62608 
6 1 164.173 -169.152 493.766 0.641638 0.272472 0.68992 0.195117 
9 1 167.385 161.539 497.478 0.78964 0.0514399 0.438986 0.425575 
8 1 -165.662 170.859 498.639 0.821493 0.0862635 0.561447 0.0498439 
ITEM: TIMESTEP
20000
ITEM: NUMBER OF ATOMS
10
ITEM: BOX BOUNDS pp pp pp
-5.0000000000000000e+02 5.0000000000000000e+02
-5.0000000000000000e+02 5.0000000000000000e+02
-5.0000000000000000e+02 5.0000000000000000e+02
ITEM: ATOMS id type x y z c_q[1] c_q[2] c_q[3] c_q[4] 
2 1 -173.983 -498.237 -497.193 0.228662 0.717918 0.35975 0.550352 
1 1 498.493 -496.223 -494.751 0.330807 0.553535 0.466053 0.605772 
7 1 498.196 161.919 -492.778 0.127485 0.493333 0.815657 0.273995 
3 1 164.112 497.446 -499.476 0.217515 0.893337 0.262643 0.292671 
10 1 495.481 499.402 -161.56 0.205164 0.843331 0.302299 0.394102 
5 1 -164.291 -170.342 494.92 0.764996 0.0707615 0.013183 0.640001 
6 1 165.032 -168.293 -497.971 0.622277 0.269873 0.705938 0.203939 
4 1 497.285 -168.678 498.162 0.77953 0.555116 0.195299 0.214563 
9 1 174.159 162.091 498.931 0.793301 -0.0132411 0.436946 0.423764 
8 1 -167.474 169.456 497.465 0.8459 0.135308 0.515855 0.00621371 
ITEM: TIMESTEP
30000
ITEM: NUMBER OF ATOMS
10
ITEM: BOX BOUNDS pp pp pp
-5.0000000000000000e+02 5.0000000000000000e+02
-5.0000000000000000e+02 5.0000000000000000e+02
-5.0000000000000000e+02 5.0000000000000000e+02
ITEM: ATOMS id type x y z c_q[1] c_q[2] c_q[3] c_q[4] 
2 1 -171.865 -496.076 -494.405 0.223963 0.716453 0.353338 0.55829 
1 1 499.293 -494.458 -494.197 0.300902 0.57924 0.487449 0.579942 
6 1 170.61 -168.701 -496.909 0.653359 0.295338 0.662563 0.21658 
7 1 496.518 162.124 -489.805 0.103923 0.430408 0.847951 0.291424 
10 1 493.357 497.919 -162.818 0.268171 0.844891 0.277271 0.370626 
4 1 -497.742 -170.075 497.352 0.794739 0.530823 0.226061 0.188449 
5 1 -164.36 -170.418 498.59 0.781533 0.0637253 0.0178519 0.620345 
9 1 178.684 160.922 498.152 0.822006 -0.0364747 0.423512 0.378963 
8 1 -161.858 170.052 498.382 0.839929 0.150144 0.521417 0.0100198 
3 1 167.066 496.108 498.354 0.185766 0.877552 0.306927 0.318103 
ITEM: TIMESTEP
40000
ITEM: NUMBER OF ATOMS
10
ITEM: BOX BOUNDS pp pp pp
-5.0000000000000000e+02 5.0000000000000000e+02
-5.0000000000000000e+02 5.0000000000000000e+02
-5.0000000000000000e+02 5.0000000000000000e+02
ITEM: ATOMS id type x y z c_q[1] c_q[2] c_q[3] c_q[4] 
5 1 -155.562 -168.775 -498.509 0.795495 0.0445731 -0.0251446 0.603795 
6 1 168.948 -174.576 -497.726 0.608294 0.30733 0.699019 0.216562 
7 1 -499.673 163.528 -495.219 0.158576 0.426823 0.846485 0.275932 
1 1 -495.18 499.845 -493.992 0.270049 0.602056 0.508089 0.553576 
2 1 -172.302 499.457 -490.22 0.239668 0.745459 0.304199 0.542507 
10 1 496.1 -499.813 -160.558 0.268286 0.828626 0.297979 0.390654 
4 1 -496.237 -167.318 495.665 0.802099 0.507489 0.239168 0.204675 
9 1 178.525 157.713 493.097 0.832832 -0.0413268 0.41213 0.367194 
8 1 -159.118 172.629 491.607 0.82478 0.142961 0.546271 0.029812 
3 1 166.422 498.489 500.097 0.138315 0.85929 0.337476 0.358609 
ITEM: TIMESTEP
50000
ITEM: NUMBER OF ATOMS
10
ITEM: BOX BOUNDS pp pp pp
-5.0000000000000000e+02 5.0000000000000000e+02
-5.0000000000000000e+02 5.0000000000000000e+02
-5.0000000000000000e+02 5.0000000000000000e+02
ITEM: ATOMS id type x y z c_q[1] c_q[2] c_q[3] c_q[4] 
3 1 165.92 -499.128 -499.221 0.0948727 0.877905 0.306696 0.355275 
7 1 496.299 162.489 -499.129 0.188701 0.441396 0.828003 0.28978 
1 1 -493.951 499.695 -494.929 0.27358 0.559914 0.549433 0.556573 
2 1 -170.344 496.565 -486.727 0.186495 0.735406 0.289181 0.583756 
10 1 492.842 -494.849 -162.792 0.30579 0.819212 0.296649 0.383905 
4 1 -494.371 -167.812 498.547 0.812565 0.484639 0.243784 0.213149 
5 1 -151.103 -173.81 497.486 0.794968 -0.0155084 -0.0384195 0.605236 
6 1 164.433 -178.112 499.309 0.621472 0.331356 0.669387 0.236427 
9 1 182.027 158.781 489.622 0.81492 0.0150528 0.466013 0.344254 
8 1 -155.226 175.311 487.543 0.877262 0.122109 0.461769 0.0476467 
ITEM: TIMESTEP
60000
ITEM: NUMBER OF ATOMS
10
ITEM: BOX BOUNDS pp pp pp
-5.0000000000000000e+02 5.0000000000000000e+02
-5.0000000000000000e+02 5.0000000000000000e+02
-5.0000000000000000e+02 5.0000000000000000e+02
ITEM: ATOMS id type x y z c_q[1] c_q[2] c_q[3] c_q[4] 
1 1 -497.963 -491.752 -497.318 0.315226 0.531075 0.563705 0.548478 
5 1 -155.744 -174.731 -498.011 0.800431 -0.0646662 -0.029528 0.595195 
2 1 -171.582 495.833 -485.521 0.181637 0.725045 0.321162 0.581526 
10 1 492.647 -495.99 -164.625 0.282275 0.812028 0.320386 0.397849 
4 1 -497.312 -167.458 499.691 0.792354 0.469426 0.297255 0.251902 
6 1 162.455 -182.691 496.908 0.617793 0.294278 0.701051 0.200648 
9 1 184.463 157.057 488.252 0.816163 0.0564519 0.466375 0.33643 
7 1 494.392 162.755 495.567 0.162218 0.460369 0.820958 0.296267 
8 1 -153.192 180.044 494.696 0.900063 0.0657784 0.429545 0.0324235 
3 1 167.045 499.771 492.985 0.112518 0.86924 0.295553 0.380012 
ITEM: TIMESTEP
70000
ITEM: NUMBER OF ATOMS
10
ITEM: BOX BOUNDS pp pp pp
-5.0000000000000000e+02 5.0000000000000000e+02
-5.0000000000000000e+02 5.0000000000000000e+02
-5.0000000000000000e+02 5.0000000000000000e+02
ITEM: ATOMS id type x y z c_q[1] c_q[2] c_q[3] c_q[4] 
1 1 499.062 -492.96 -496.857 0.300336 0.540262 0.596856 0.511545 
2 1 -171.502 497.869 -487.236 0.16843 0.715113 0.358042 0.576239 
10 1 494.346 -494.329 -161.151 0.256607 0.827469 0.304457 0.395923 
3 1 171.888 -498.534 492.853 0.117459 0.880555 0.28627 0.358992 
4 1 -494.634 -166.583 493.184 0.826506 0.441512 0.264489 0.228035 
5 1 -160.071 -182.325 497.985 0.800878 -0.113841 -0.0675251 0.584016 
6 1 164.015 -185.364 497.617 0.62973 0.269695 0.696364 0.213968 
9 1 185.416 156.264 487.236 0.817321 -0.000887111 0.463359 0.342469 
8 1 -155.569 177.219 494.873 0.905691 0.0744082 0.41675 0.0225171 
7 1 490.692 166.498 489.487 0.173664 0.484515 0.810183 0.280518 
ITEM: TIMESTEP
80000
ITEM: NUMBER OF ATOMS
10
ITEM: BOX BOUNDS pp pp pp
-5.0000000000000000e+02 5.0000000000000000e+02
-5.0000000000000000e+02 5.0000000000000000e+02
-5.0000000000000000e+02 5.0000000000000000e+02
ITEM: ATOMS id type x y z c_q[1] c_q[2] c_q[3] c_q[4] 
1 1 -496.396 -489.601 -495.803 0.308885 0.547903 0.587771 0.50884 
6 1 162.72 -180.899 -499.7 0.603641 0.251115 0.722766 0.223981 
2 1 -174.093 493.83 -482.047 0.159098 0.744196 0.306982 0.571509 
10 1 498.912 -496.617 -161.83 0.26106 0.844289 0.282961 0.37277 
5 1 -162.556 -187.682 497.715 0.780735 -0.0798123 -0.137109 0.604387 
4 1 -495.325 -164.409 490.566 0.819029 0.432527 0.281335 0.250924 
9 1 188.413 157.296 482.002 0.79397 0.0139231 0.487099 0.363528 
7 1 489.002 165.751 488.513 0.109472 0.540266 0.784375 0.284401 
8 1 -159.089 181.319 495.898 0.92327 0.0458733 0.379372 0.039312 
3 1 179.49 494.625 495.386 0.119718 0.880704 0.307835 0.339507 
ITEM: TIMESTEP
90000
ITEM: NUMBER OF ATOMS
10
ITEM: BOX BOUNDS pp pp pp
-5.0000000000000000e+02 5.0000000000000000e+02
-5.0000000000000000e+02 5.0000000000000000e+02
-5.0000000000000000e+02 5.0000000000000000e+02
ITEM: ATOMS id type x y z c_q[1] c_q[2] c_q[3] c_q[4] 
1 1 -496.755 -491.869 -494.267 0.313114 0.602461 0.552018 0.48402 
5 1 -163.778 -192.037 -499.82 0.783938 -0.0990764 -0.17551 0.587215 
2 1 -175.271 494.441 -475.215 0.145355 0.69665 0.368545 0.598101 
10 1 -495.981 -496.752 -163.181 0.265006 0.820014 0.284288 0.420153 
4 1 -499.075 -166.838 491.473 0.811273 0.422521 0.318926 0.248192 
6 1 158.665 -181.673 499.8 0.587668 0.209202 0.743336 0.241521 
9 1 189.57 154.305 477.33 0.781354 0.0294514 0.480767 0.396841 
7 1 493.826 165.215 490.795 0.116274 0.51078 0.803061 0.284037 
8 1 -160.394 185.681 499.905 0.923834 0.0394783 0.380504 0.0137519 
3 1 183.17 496.517 492.927 0.124802 0.866464 0.312335 0.368933 
ITEM: TIMESTEP
100000
ITEM: NUMBER OF ATOMS
10
ITEM: BOX BOUNDS pp pp pp
-5.0000000000000000e+02 5.0000000000000000e+02
-5.0000000000000000e+02 5.0000000000000000e+02
-5.0000000000000000e+02 5.0000000000000000e+02
ITEM: ATOMS id type x y z c_q[1] c_q[2] c_q[3] c_q[4] 
1 1 -494.465 -492.785 -490.854 0.270047 0.647547 0.53713 0.468241 
8 1 -159.169 187.762 -497.13 0.930675 0.0686229 0.358547 -0.0240414 
2 1 -178.333 495.765 -474.302 0.144465 0.735854 0.306159 0.586443 
10 1 -492.996 -494.426 -163.703 0.222826 0.813318 0.274226 0.462236 
4 1 -498.594 -173.554 490.224 0.820362 0.434767 0.270546 0.254536 
5 1 -157.293 -194.208 493.325 0.803047 -0.128328 -0.212017 0.541938 
6 1 161.176 -184.536 497.102 0.55682 0.231203 0.749988 0.272056 
9 1 187.605 152.545 474.893 0.785176 0.0675837 0.486073 0.377708 
7 1 496.021 157.59 490.541 0.0513136 0.462351 0.826907 0.31595 
3 1 187.119 495.672 494.507 0.112008 0.888803 0.296174 0.331306 
ITEM: TIMESTEP
110000
ITEM: NUMBER OF ATOMS
10
ITEM: BOX BOUNDS pp pp pp
-5.0000000000000000e+02 5.0000000000000000e+02
-5.0000000000000000e+02 5.0000000000000000e+02
-5.0000000000000000e+02 5.0000000000000000e+02
ITEM: ATOMS id type x y z c_q[1] c_q[2] c_q[3] c_q[4] 
1 1 -493.061 -487.963 -490.309 0.268782 0.625751 0.51996 0.51559 
2 1 -178.553 -499.13 -472.098 0.128052 0.730803 0.334358 0.581149 
10 1 -492.29 -498.412 -170.488 0.264753 0.809907 0.246378 0.461794 
3 1 186.958 -499.685 494.054 0.0768104 0.913253 0.241016 0.319344 
4 1 -498.993 -177.322 487.527 0.790703 0.431586 0.335206 0.27597 
5 1 -158.33 -201.004 486.453 0.808508 -0.149121 -0.249838 0.511527 
6 1 160.94 -183.29 498.367 0.481683 0.231406 0.812593 0.23265 
9 1 183.596 148.264 470.734 0.783755 0.06118 0.483342 0.385182 
7 1 496.883 160.511 490.552 0.0485582 0.499038 0.811787 0.299342 
8 1 -161.454 182.893 499.864 0.940289 0.0692515 0.331656 -0.0326493 
ITEM: TIMESTEP
120000
ITEM: NUMBER OF ATOMS
10
ITEM: BOX BOUNDS pp pp pp
-5.0000000000000000e+02 5.0000000000000000e+02
-5.0000000000000000e+02 5.0000000000000000e+02
-5.0000000000000000e+02 5.0000000000000000e+02
ITEM: ATOMS id type x y z c_q[1] c_q[2] c_q[3] c_q[4] 
1 1 -493.534 -491.183 -496.172 0.259274 0.606067 0.555395 0.506949 
2 1 -179.675 -497.409 -468.706 0.112201 0.744041 0.350744 0.557488 
10 1 -492.539 498.961 -168.117 0.273827 0.7641 0.27705 0.514211 
3 1 191.523 -499.608 494.169 0.0746088 0.891958 0.234095 0.379531 
4 1 -497.993 -179.357 488.094 0.776561 0.453245 0.330741 0.286587 
5 1 -161.925 -201.234 488.156 0.784783 -0.15398 -0.237469 0.551375 
6 1 164.105 -185.633 498.671 0.491894 0.252346 0.808681 0.200991 
9 1 178.688 147.182 470.242 0.775399 0.0370403 0.491075 0.39526 
7 1 495.955 158.838 495.22 0.151822 0.464263 0.82744 0.277044 
8 1 -158.796 184.945 495.76 0.911608 0.0780668 0.398136 -0.0660668 
ITEM: TIMESTEP
130000
ITEM: NUMBER OF ATOMS
10
ITEM: BOX BOUNDS pp pp pp
-5.0000000000000000e+02 5.0000000000000000e+02
-5.0000000000000000e+02 5.0000000000000000e+02
-5.0000000000000000e+02 5.0000000000000000e+02
ITEM: ATOMS id type x y z c_q[1] c_q[2] c_q[3] c_q[4] 
1 1 -495.304 -488.873 -494.858 0.271065 0.638457 0.529716 0.488157 
2 1 -176.169 -498.109 -462.301 0.144989 0.741258 0.335821 0.562795 
10 1 -496.26 -499.575 -162.761 0.266178 0.748514 0.276919 0.540548 
3 1 195.606 499.969 491.519 0.0616819 0.883596 0.241538 0.396376 
4 1 -492.947 -183.602 486.569 0.752107 0.447513 0.386092 0.291547 
5 1 -167.241 -198.24 487.64 0.785417 -0.111109 -0.200694 0.574889 
6 1 164.499 -178.177 495.731 0.4861 0.236922 0.819419 0.190071 
9 1 174.779 145.864 464.068 0.741146 0.0312012 0.509372 0.436198 
7 1 492.758 151.87 493.897 0.138243 0.480718 0.822348 0.271186 
8 1 -156.436 187.819 494.454 0.923208 0.0861688 0.369629 -0.0603041 
ITEM: TIMESTEP
140000
ITEM: NUMBER OF ATOMS
10
ITEM: BOX BOUNDS pp pp pp
-5.0000000000000000e+02 5.0000000000000000e+02
-5.0000000000000000e+02 5.0000000000000000e+02
-5.0000000000000000e+02 5.0000000000000000e+02
ITEM: ATOMS id type x y z c_q[1] c_q[2] c_q[3] c_q[4] 
1 1 -498.799 -487.871 -495.231 0.250038 0.590158 0.557452 0.527675 
2 1 -174.167 -495.663 -458.537 0.142435 0.7869 0.263003 0.53975 
10 1 -496.474 -496.13 -162.265 0.247226 0.757738 0.277785 0.536235 
3 1 200.415 -496.077 484.511 0.059332 0.881079 0.218385 0.415315 
4 1 -487.009 -185.022 484.351 0.781527 0.443815 0.323104 0.29639 
5 1 -162.567 -201.586 487.077 0.773883 -0.104378 -0.219304 0.584907 
6 1 165.837 -176.486 494.2 0.493648 0.208316 0.818222 0.208395 
9 1 178.185 147.662 466.941 0.76269 0.00767714 0.476437 0.437324 
7 1 493.179 155.077 496.128 0.116579 0.502406 0.816687 0.25888 
8 1 -155.817 189.892 493.738 0.923209 0.0731395 0.375778 -0.0335771 
ITEM: TIMESTEP
150000
ITEM: NUMBER OF ATOMS
10
ITEM: BOX BOUNDS pp pp pp
-5.0000000000000000e+02 5.0000000000000000e+02
-5.0000000000000000e+02 5.0000000000000000e+02
-5.0000000000000000e+02 5.0000000000000000e+02
ITEM: ATOMS id type x y z c_q[1] c_q[2] c_q[3] c_q[4] 
1 1 -498.496 -484.988 -497.817 0.228765 0.582443 0.583005 0.5182 
2 1 -177.562 -493.809 -460.957 0.119721 0.78911 0.23073 0.55654 
10 1 -491.9 498.407 -166.54 0.280805 0.723312 0.238828 0.583892 
3 1 202.156 -493.215 480.66 0.0431086 0.917096 0.150145 0.366788 
4 1 -488.96 -187.758 481.088 0.756605 0.471407 0.353511 0.283468 
5 1 -162.349 -205.06 483.859 0.761032 -0.11134 -0.197938 0.607663 
6 1 169.339 -179.358 495.962 0.473742 0.263873 0.803513 0.245572 
9 1 179.689 148.378 467.309 0.784874 -0.0209691 0.4738 0.398806 
7 1 493.206 150.718 498.257 0.120188 0.500207 0.816543 0.261928 
8 1 -154.78 191.239 493.894 0.923983 0.0688697 0.373033 -0.0485742 
ITEM: TIMESTEP
160000
ITEM: NUMBER OF ATOMS
10
ITEM: BOX BOUNDS pp pp pp
-5.0000000000000000e+02 5.0000000000000000e+02
-5.0000000000000000e+02 5.0000000000000000e+02
-5.0000000000000000e+02 5.0000000000000000e+02
ITEM: ATOMS id type x y z c_q[1] c_q[2] c_q[3] c_q[4] 
2 1 -180.151 -490.582 -460.765 0.11403 0.791951 0.222412 0.557085 
7 1 487.967 149.411 -499.692 0.119673 0.525562 0.815965 0.208959 
10 1 -494.128 -497.023 -169.534 0.288751 0.731066 0.252508 0.564274 
3 1 203.721 -492.387 483.509 0.0792855 0.894986 0.187916 0.396738 
1 1 496.878 -483.257 498.192 0.178751 0.550019 0.631213 0.516814 
4 1 -488.094 -189.377 485.616 0.770876 0.487368 0.323972 0.251524 
5 1 -164.3 -203.861 482.777 0.765458 -0.0962587 -0.186004 0.60845 
6 1 162.456 -183.344 494.289 0.475377 0.199074 0.81663 0.259811 
9 1 177.036 147.46 469.932 0.79134 0.0156058 0.48612 0.370439 
8 1 -148.053 192.395 494.541 0.938547 0.0560712 0.337316 -0.0469398 
ITEM: TIMESTEP
170000
ITEM: NUMBER OF ATOMS
10
ITEM: BOX BOUNDS pp pp pp
-5.0000000000000000e+02 5.0000000000000000e+02
-5.0000000000000000e+02 5.0000000000000000e+02
-5.0000000000000000e+02 5.0000000000000000e+02
ITEM: ATOMS id type x y z c_q[1] c_q[2] c_q[3] c_q[4] 
2 1 -181.276 -490.334 -457.227 0.124799 0.849598 0.172583 0.482518 
7 1 491.609 151.901 -495.65 0.129393 0.493707 0.832708 0.214728 
10 1 -496.12 -498.11 -173.216 0.25796 0.732201 0.217811 0.591521 
3 1 196.966 -494.436 476.762 0.0580059 0.902718 0.186792 0.383204 
1 1 495.97 -483.478 495.505 0.164364 0.581921 0.644902 0.46739 
4 1 -484.242 -186.518 490.674 0.769036 0.48391 0.32669 0.260169 
5 1 -165.94 -204.906 483.159 0.763756 -0.16306 -0.183317 0.597061 
6 1 160.034 -188.402 491.106 0.457311 0.182928 0.826627 0.272198 
9 1 175.605 148.707 469.734 0.797673 0.03611 0.478453 0.365372 
8 1 -146.469 195.454 498.496 0.945898 0.0721577 0.310812 -0.0588777 
ITEM: TIMESTEP
180000
ITEM: NUMBER OF ATOMS
10
ITEM: BOX BOUNDS pp pp pp
-5.0000000000000000e+02 5.0000000000000000e+02
-5.0000000000000000e+02 5.0000000000000000e+02
-5.0000000000000000e+02 5.0000000000000000e+02
ITEM: ATOMS id type x y z c_q[1] c_q[2] c_q[3] c_q[4] 
2 1 -188.992 -493.541 -452.714 0.10575 0.837119 0.218043 0.490415 
7 1 491.13 150.986 -496.599 0.107189 0.503092 0.839252 0.176252 
8 1 -144.401 192.256 -496.514 0.934046 0.0819237 0.318475 -0.139356 
10 1 -497.038 -495.854 -172.619 0.252064 0.702038 0.239904 0.621331 
3 1 192.829 -494.832 477.624 0.10614 0.892793 0.171079 0.402973 
1 1 493.353 -485.069 496.052 0.133481 0.589148 0.658917 0.448238 
4 1 -481.374 -183.386 494.994 0.732277 0.484288 0.367814 0.306512 
5 1 -163.62 -204.599 483.057 0.760536 -0.110273 -0.205522 0.605959 
6 1 160.934 -186.043 491.161 0.439409 0.208735 0.835633 0.255082 
9 1 174.803 150.085 467.796 0.787784 -0.00468934 0.463708 0.4054 
ITEM: TIMESTEP
190000
ITEM: NUMBER OF ATOMS
10
ITEM: BOX BOUNDS pp pp pp
-5.0000000000000000e+02 5.0000000000000000e+02
-5.0000000000000000e+02 5.0000000000000000e+02
-5.0000000000000000e+02 5.0000000000000000e+02
ITEM: ATOMS id type x y z c_q[1] c_q[2] c_q[3] c_q[4] 
7 1 490.851 158.989 -496.808 0.157307 0.534582 0.805244 0.202629 
8 1 -149.17 192.644 -497.292 0.943298 0.0952316 0.262117 -0.180041 
2 1 -188.453 499.842 -455.565 0.088177 0.833007 0.242489 0.489411 
10 1 -493.716 -497.521 -175.318 0.26351 0.692662 0.230991 0.630417 
3 1 189.778 -493.217 475.267 0.0449816 0.902429 0.239857 0.35506 
1 1 485.843 -481.505 491.463 0.111104 0.616301 0.661907 0.411955 
4 1 -484.838 -183.44 493.238 0.734351 0.514095 0.34247 0.281334 
5 1 -162.377 -201.349 481.789 0.758545 -0.109096 -0.250542 0.591555 
6 1 162.459 -189.045 487.51 0.444084 0.23676 0.822117 0.26619 
9 1 172.505 148.688 465.469 0.796809 -0.0130456 0.462317 0.38883 
ITEM: TIMESTEP
200000
ITEM: NUMBER OF ATOMS
10
ITEM: BOX BOUNDS pp pp pp
-5.0000000000000000e+02 5.0000000000000000e+02
-5.0000000000000000e+02 5.0000000000000000e+02
-5.0000000000000000e+02 5.0000000000000000e+02
ITEM: ATOMS id type x y z c_q[1] c_q[2] c_q[3] c_q[4] 
2 1 -190.695 -498.803 -455.884 0.104619 0.833214 0.219669 0.496542 
7 1 493.411 154.95 -498.385 0.149442 0.500313 0.810366 0.265822 
8 1 -146.016 189.829 -493.03 0.936035 0.117408 0.265057 -0.199496 
10 1 -489.274 -498.824 -174.627 0.24489 0.674154 0.280084 0.638043 
3 1 189.314 -495.932 473.433 0.0718805 0.891601 0.221199 0.388525 
1 1 492.032 -483.948 497.891 0.100775 0.684965 0.631705 0.348735 
4 1 -484.618 -184.199 492.079 0.758566 0.470027 0.339746 0.297027 
5 1 -162.526 -196.886 475.835 0.775771 -0.110668 -0.304637 0.541413 
6 1 163.698 -186.11 491.568 0.474038 0.196542 0.800246 0.310267 
9 1 169.29 142.76 459.051 0.812969 -0.00593422 0.423779 0.399321 
ITEM: TIMESTEP
210000
ITEM: NUMBER OF ATOMS
10
ITEM: BOX BOUNDS pp pp pp
-5.0000000000000000e+02 5.0000000000000000e+02
-5.0000000000000000e+02 5.0000000000000000e+02
-5.0000000000000000e+02 5.0000000000000000e+02
ITEM: ATOMS id type x y z c_q[1] c_q[2] c_q[3] c_q[4] 
1 1 488.242 -487.796 -497.134 0.130288 0.669246 0.657853 0.319944 
7 1 492.814 148.679 -498.191 0.170044 0.479881 0.815144 0.276297 
8 1 -145.213 192.978 -489.027 0.933717 0.0751175 0.282878 -0.206181 
2 1 -194.234 500.208 -454.902 0.122958 0.811317 0.184355 0.54098 
10 1 -485.91 496.456 -178.667 0.231108 0.634308 0.302887 0.672683 
3 1 186.752 -497.31 475.394 0.0925739 0.878966 0.20235 0.421785 
4 1 -486.944 -181.402 487.67 0.777242 0.425067 0.343627 0.311662 
5 1 -163.939 -200.76 479.586 0.772089 -0.171858 -0.299495 0.533522 
6 1 166.749 -190.388 491.504 0.46936 0.181087 0.806213 0.311334 
9 1 173.539 148.143 456.036 0.821085 0.00414477 0.428121 0.377512 
ITEM: TIMESTEP
220000
ITEM: NUMBER OF ATOMS
10
ITEM: BOX BOUNDS pp pp pp
-5.0000000000000000e+02 5.0000000000000000e+02
-5.0000000000000000e+02 5.0000000000000000e+02
-5.0000000000000000e+02 5.0000000000000000e+02
ITEM: ATOMS id type x y z c_q[1] c_q[2] c_q[3] c_q[4] 
1 1 485.947 -487.038 -495.692 0.108313 0.707446 0.646056 0.265331 
7 1 490.897 152.287 -498.695 0.198517 0.496954 0.792563 0.292356 
8 1 -140.095 191.42 -493.297 0.922013 0.0789532 0.299403 -0.232415 
2 1 -187.753 497.907 -457.235 0.100254 0.824984 0.209858 0.515082 
10 1 -490.758 492.514 -176.338 0.21742 0.670964 0.254603 0.661599 
3 1 190.305 -499.093 473.917 0.125338 0.873816 0.149067 0.445549 
4 1 -489.862 -182.498 489.807 0.795125 0.410309 0.307085 0.324224 
5 1 -163.814 -198.848 485.776 0.754103 -0.179029 -0.291007 0.560885 
6 1 168.164 -188.307 496.429 0.419458 0.223479 0.818581 0.322549 
9 1 171.378 149.687 451.349 0.824303 0.00789898 0.425559 0.373311 
ITEM: TIMESTEP
230000
ITEM: NUMBER OF ATOMS
10
ITEM: BOX BOUNDS pp pp pp
-5.0000000000000000e+02 5.0000000000000000e+02
-5.0000000000000000e+02 5.0000000000000000e+02
-5.0000000000000000e+02 5.0000000000000000e+02
ITEM: ATOMS id type x y z c_q[1] c_q[2] c_q[3] c_q[4] 
1 1 483.058 -487.06 -496.199 0.14801 0.659112 0.671188 0.305239 
8 1 -140.372 195.718 -490.952 0.912077 0.127288 0.307999 -0.238853 
2 1 -181.862 -499.474 -457.784 0.0654681 0.82419 0.241884 0.507855 
10 1 -486.065 490.849 -178.966 0.189835 0.701551 0.223252 0.649575 
3 1 187.539 -497.54 471.518 0.0828546 0.85939 0.201206 0.46271 
4 1 -491.061 -175.142 487.525 0.77007 0.454491 0.317926 0.315202 
5 1 -158.805 -201.792 489.74 0.762275 -0.204805 -0.24571 0.562689 
6 1 171.822 -186.641 498.645 0.400989 0.228296 0.833635 0.303548 
9 1 174.704 147.985 452.088 0.832078 -0.0279719 0.409984 0.372527 
7 1 490.144 154.679 499.507 0.26175 0.518839 0.76599 0.274868 
ITEM: TIMESTEP
240000
ITEM: NUMBER OF ATOMS
10
ITEM: BOX BOUNDS pp pp pp
-5.0000000000000000e+02 5.0000000000000000e+02
-5.0000000000000000e+02 5.0000000000000000e+02
-5.0000000000000000e+02 5.0000000000000000e+02
ITEM: ATOMS id type x y z c_q[1] c_q[2] c_q[3] c_q[4] 
2 1 -182.963 -499.973 -457.82 0.00220686 0.834347 0.242389 0.495084 
1 1 481.185 -490.441 -497.741 0.163176 0.656492 0.693363 0.248274 
6 1 172.932 -185.894 -498.846 0.382419 0.189755 0.843448 0.326104 
7 1 492.502 150.942 -498.893 0.243178 0.541821 0.749312 0.292961 
8 1 -141.024 193.012 -490.538 0.898607 0.150672 0.338582 -0.234873 
10 1 -485.838 495.852 -174.39 0.20869 0.680189 0.214397 0.669197 
3 1 189.847 -494.109 473.523 0.0781146 0.870236 0.188486 0.448397 
4 1 -489.484 -174.902 486.986 0.752953 0.465976 0.349462 0.306274 
5 1 -158.667 -202.055 491.622 0.766305 -0.186357 -0.251602 0.56102 
9 1 168.076 149.069 449.635 0.847168 -0.02201 0.427301 0.315017 
ITEM: TIMESTEP
250000
ITEM: NUMBER OF ATOMS
10
ITEM: BOX BOUNDS pp pp pp
-5.0000000000000000e+02 5.0000000000000000e+02
-5.0000000000000000e+02 5.0000000000000000e+02
-5.0000000000000000e+02 5.0000000000000000e+02
ITEM: ATOMS id type x y z c_q[1] c_q[2] c_q[3] c_q[4] 
6 1 172.38 -184.951 -498.717 0.404696 0.175078 0.842602 0.309179 
7 1 493.407 156.977 -494.901 0.225671 0.534408 0.757029 0.300647 
8 1 -140.504 194.842 -494.353 0.896683 0.156358 0.338864 -0.238082 
2 1 -184.945 498.976 -462.77 0.00126771 0.852448 0.236949 0.466033 
10 1 -484.855 497.967 -171.604 0.195484 0.695686 0.257568 0.641456 
3 1 189.44 -493.894 476.415 0.0581369 0.873925 0.138657 0.462223 
1 1 483.76 -490.423 498.345 0.141504 0.643092 0.717756 0.226353 
4 1 -486.83 -167.041 488.329 0.731199 0.462962 0.391139 0.31309 
5 1 -153.772 -202.472 494.102 0.741281 -0.19686 -0.30766 0.563111 
9 1 166.493 148.764 450.564 0.829101 -0.0568162 0.462499 0.308964 
ITEM: TIMESTEP
260000
ITEM: NUMBER OF ATOMS
10
ITEM: BOX BOUNDS pp pp pp
-5.0000000000000000e+02 5.0000000000000000e+02
-5.0000000000000000e+02 5.0000000000000000e+02
-5.0000000000000000e+02 5.0000000000000000e+02
ITEM: ATOMS id type x y z c_q[1] c_q[2] c_q[3] c_q[4] 
6 1 173.187 -185.185 -498.479 0.392709 0.128568 0.860643 0.297563 
7 1 497.048 155.125 -489.939 0.226563 0.529085 0.783178 0.23531 
8 1 -141.119 194.755 -488.951 0.889962 0.167282 0.331765 -0.264417 
2 1 -181.049 498.146 -461.543 0.0244231 0.863088 0.234202 0.446803 
10 1 -483.192 496.032 -172.421 0.209904 0.675476 0.283835 0.647387 
3 1 193.866 -496.242 476.735 0.0126894 0.887675 0.145665 0.436639 
1 1 484.548 -490.413 499.755 0.208731 0.607291 0.736044 0.214167 
5 1 -155.14 -204.859 491.995 0.739914 -0.240913 -0.256745 0.57321 
4 1 -482.347 -166.868 490.756 0.722606 0.420793 0.44068 0.326458 
9 1 162.48 147.777 448.421 0.843709 -0.0578658 0.410413 0.341126 
ITEM: TIMESTEP
270000
ITEM: NUMBER OF ATOMS
10
ITEM: BOX BOUNDS pp pp pp
-5.0000000000000000e+02 5.0000000000000000e+02
-5.0000000000000000e+02 5.0000000000000000e+02
-5.0000000000000000e+02 5.0000000000000000e+02
ITEM: ATOMS id type x y z c_q[1] c_q[2] c_q[3] c_q[4] 
6 1 172.912 -186.518 -497.559 0.370177 0.10126 0.863988 0.325947 
7 1 497.592 155.128 -489.164 0.244357 0.504874 0.794634 0.232268 
8 1 -139.664 199.561 -484.43 0.880918 0.165958 0.324822 -0.30155 
2 1 -173.713 498.526 -458.745 0.0196127 0.864572 0.224311 0.449239 
10 1 -481.134 -499.894 -178.278 0.222004 0.676494 0.296499 0.636521 
3 1 193.469 -495.719 479.976 0.0266813 0.885841 0.166204 0.432377 
1 1 476.362 -489.463 497.468 0.201304 0.618453 0.72709 0.219846 
4 1 -481.436 -171.223 491.013 0.737922 0.384182 0.471903 0.29186 
5 1 -158.558 -206.974 492.372 0.728061 -0.247591 -0.275583 0.576784 
9 1 161.371 144.154 447.828 0.85846 -0.00278941 0.427295 0.283649 
ITEM: TIMESTEP
280000
ITEM: NUMBER OF ATOMS
10
ITEM: BOX BOUNDS pp pp pp
-5.0000000000000000e+02 5.0000000000000000e+02
-5.0000000000000000e+02 5.0000000000000000e+02
-5.0000000000000000e+02 5.0000000000000000e+02
ITEM: ATOMS id type x y z c_q[1] c_q[2] c_q[3] c_q[4] 
2 1 -173.148 -499.205 -457.526 -0.0156584 0.862253 0.244417 0.443322 
1 1 475.374 -489.691 -499.617 0.192913 0.627635 0.726714 0.201854 
6 1 176.432 -182.495 -498.628 0.385322 0.0641371 0.86088 0.326036 
7 1 499.223 154.249 -487.157 0.247785 0.511287 0.793477 0.218134 
8 1 -141.848 205.174 -485.952 0.891018 0.146782 0.258874 -0.342822 
10 1 -479.11 -499.617 -176.106 0.185001 0.711738 0.276035 0.618877 
3 1 194.28 -491.54 478.306 0.0424568 0.878908 0.175296 0.441575 
4 1 -482.079 -171.039 492.301 0.739513 0.381092 0.472193 0.291416 
5 1 -152.917 -207.276 493.349 0.755147 -0.193307 -0.283442 0.55861 
9 1 159.736 145.512 448.297 0.872928 0.0202644 0.432964 0.223893 
ITEM: TIMESTEP
290000
ITEM: NUMBER OF ATOMS
10
ITEM: BOX BOUNDS pp pp pp
-5.0000000000000000e+02 5.0000000000000000e+02
-5.0000000000000000e+02 5.0000000000000000e+02
-5.0000000000000000e+02 5.0000000000000000e+02
ITEM: ATOMS id type x y z c_q[1] c_q[2] c_q[3] c_q[4] 
2 1 -172.155 -495.789 -460.459 -0.0152802 0.896759 0.167504 0.409307 
1 1 474.047 -490.75 -495.829 0.173549 0.605863 0.765121 0.131915 
6 1 177.159 -183.734 -499.79 0.336899 0.0815084 0.862104 0.369638 
7 1 -497.977 154.466 -487.405 0.222586 0.540191 0.765399 0.269841 
8 1 -138.816 206.683 -486.057 0.884603 0.130133 0.308634 -0.324482 
10 1 -480.622 -497.068 -174.502 0.162734 0.725966 0.322191 0.585392 
3 1 192.872 -489.971 478.793 0.042973 0.871288 0.158551 0.462463 
4 1 -480.141 -168.444 492.561 0.74744 0.420531 0.433133 0.277278 
5 1 -156.766 -206.498 494.456 0.738294 -0.166431 -0.276776 0.59213 
9 1 154.385 149.101 449.407 0.875101 -0.0137088 0.416968 0.245251 
ITEM: TIMESTEP
300000
ITEM: NUMBER OF ATOMS
10
ITEM: BOX BOUNDS pp pp pp
-5.0000000000000000e+02 5.0000000000000000e+02
-5.0000000000000000e+02 5.0000000000000000e+02
-5.0000000000000000e+02 5.0000000000000000e+02
ITEM: ATOMS id type x y z c_q[1] c_q[2] c_q[3] c_q[4] 
2 1 -169.242 -496.791 -461.003 0.0329837 0.916248 0.164426 0.363821 
1 1 471.174 -490.583 -490.979 0.206218 0.615998 0.749524 0.127411 
7 1 498.551 161.364 -490.808 0.20918 0.513021 0.794525 0.24856 
8 1 -132.95 203.156 -480.621 0.87691 0.127079 0.318241 -0.33705 
10 1 -484.081 -496.755 -176.162 0.159618 0.69723 0.30156 0.63044 
3 1 190.759 -493.582 480.643 0.0785066 0.884479 0.182839 0.422023 
4 1 -478.071 -166.911 487.59 0.738153 0.435648 0.423861 0.292718 
5 1 -158.439 -208.528 492.661 0.698466 -0.175997 -0.275004 0.636823 
6 1 174.275 -184.004 495.201 0.384908 0.0234341 0.848586 0.362213 
9 1 156.2 150.333 453.885 0.91271 -0.0479184 0.365252 0.176793 
ITEM: TIMESTEP
310000
ITEM: NUMBER OF ATOMS
10
ITEM: BOX BOUNDS pp pp pp
-5.0000000000000000e+02 5.0000000000000000e+02
-5.0000000000000000e+02 5.0000000000000000e+02
-5.0000000000000000e+02 5.0000000000000000e+02
ITEM: ATOMS id type x y z c_q[1] c_q[2] c_q[3] c_q[4] 
1 1 472.861 -489.551 -494.535 0.155803 0.606975 0.769084 0.125766 
7 1 499.167 159.314 -492.131 0.204364 0.58978 0.743505 0.23999 
8 1 -129.665 201.278 -478.279 0.898772 0.139577 0.267625 -0.31797 
2 1 -165.593 498.304 -460.47 0.0504417 0.893016 0.190214 0.404717 
10 1 -481.365 498.001 -175.833 0.131363 0.729171 0.339863 0.579264 
3 1 195.852 -489.777 479.249 0.0692031 0.869622 0.242732 0.424322 
4 1 -482.494 -168.749 485.771 0.746453 0.432529 0.421895 0.278805 
5 1 -160.708 -211.015 495.657 0.687297 -0.218794 -0.290972 0.628559 
6 1 176.106 -184.202 492.578 0.309267 0.0196153 0.87317 0.376223 
9 1 158.254 149.234 453.749 0.903073 -0.0315012 0.395363 0.164789 
ITEM: TIMESTEP
320000
ITEM: NUMBER OF ATOMS
10
ITEM: BOX BOUNDS pp pp pp
-5.0000000000000000e+02 5.0000000000000000e+02