LAMMPS data file

35 atoms
35 ellipsoids
0 bonds
0 angles
0 dihedrals

1 atom types
0 bond types
0 angle types
0 dihedral types

-500.000000 500.000000 xlo xhi
-500.000000 500.000000 ylo yhi
-500.000000 500.000000 zlo zhi

Masses

1 203166.000000

Atoms

1 1 -500.000000 -500.000000 -500.000000 1 1.000000 3 0.000000
2 1 -250.000000 -500.000000 -500.000000 1 1.000000 4 0.000000
3 1 0.000000 -500.000000 -500.000000 1 1.000000 5 0.000000
4 1 250.000000 -500.000000 -500.000000 1 1.000000 6 0.000000
5 1 -500.000000 -250.000000 -500.000000 1 1.000000 7 0.000000
6 1 -250.000000 -250.000000 -500.000000 1 1.000000 8 0.000000
7 1 0.000000 -250.000000 -500.000000 1 1.000000 9 0.000000
8 1 250.000000 -250.000000 -500.000000 1 1.000000 10 0.000000
9 1 -500.000000 0.000000 -500.000000 1 1.000000 11 0.000000
10 1 -250.000000 0.000000 -500.000000 1 1.000000 12 0.000000
11 1 0.000000 0.000000 -500.000000 1 1.000000 13 0.000000
12 1 250.000000 0.000000 -500.000000 1 1.000000 14 0.000000
13 1 -500.000000 250.000000 -500.000000 1 1.000000 15 0.000000
14 1 -250.000000 250.000000 -500.000000 1 1.000000 16 0.000000
15 1 0.000000 250.000000 -500.000000 1 1.000000 17 0.000000
16 1 250.000000 250.000000 -500.000000 1 1.000000 18 0.000000
17 1 -500.000000 -500.000000 -250.000000 1 1.000000 19 0.000000
18 1 -250.000000 -500.000000 -250.000000 1 1.000000 20 0.000000
19 1 0.000000 -500.000000 -250.000000 1 1.000000 21 0.000000
20 1 250.000000 -500.000000 -250.000000 1 1.000000 22 0.000000
21 1 -500.000000 -250.000000 -250.000000 1 1.000000 23 0.000000
22 1 -250.000000 -250.000000 -250.000000 1 1.000000 24 0.000000
23 1 0.000000 -250.000000 -250.000000 1 1.000000 25 0.000000
24 1 250.000000 -250.000000 -250.000000 1 1.000000 26 0.000000
25 1 -500.000000 0.000000 -250.000000 1 1.000000 27 0.000000
26 1 -250.000000 0.000000 -250.000000 1 1.000000 28 0.000000
27 1 0.000000 0.000000 -250.000000 1 1.000000 29 0.000000
28 1 250.000000 0.000000 -250.000000 1 1.000000 30 0.000000
29 1 -500.000000 250.000000 -250.000000 1 1.000000 31 0.000000
30 1 -250.000000 250.000000 -250.000000 1 1.000000 32 0.000000
31 1 0.000000 250.000000 -250.000000 1 1.000000 33 0.000000
32 1 250.000000 250.000000 -250.000000 1 1.000000 34 0.000000
33 1 -500.000000 -500.000000 0.000000 1 1.000000 35 0.000000
34 1 -250.000000 -500.000000 0.000000 1 1.000000 36 0.000000
35 1 0.000000 -500.000000 0.000000 1 1.000000 37 0.000000

Ellipsoids

1 55.000000 110.000000 110.000000 0.325557 0.717660 0.027625 0.614991
2 55.000000 110.000000 110.000000 0.477371 0.188920 0.377092 0.770861
3 55.000000 110.000000 110.000000 0.537139 0.626316 0.564412 0.025481
4 55.000000 110.000000 110.000000 0.514537 0.169542 0.481833 0.688726
5 55.000000 110.000000 110.000000 0.160728 0.773475 0.612903 0.015910
6 55.000000 110.000000 110.000000 0.158225 0.582025 0.452783 0.656658
7 55.000000 110.000000 110.000000 0.560897 0.567194 0.571353 0.192983
8 55.000000 110.000000 110.000000 0.361837 0.682810 0.613149 0.163988
9 55.000000 110.000000 110.000000 0.754145 0.587303 0.220036 0.194744
10 55.000000 110.000000 110.000000 0.599713 0.672150 0.223704 0.372176
11 55.000000 110.000000 110.000000 0.573321 0.685874 0.382009 0.234411
12 55.000000 110.000000 110.000000 0.795000 0.421800 0.433001 0.050689
13 55.000000 110.000000 110.000000 0.393188 0.385325 0.548496 0.629349
14 55.000000 110.000000 110.000000 0.436811 0.809083 0.345002 0.188556
15 55.000000 110.000000 110.000000 0.145147 0.007206 0.740819 0.655796
16 55.000000 110.000000 110.000000 0.554366 0.590127 0.183807 0.557354
17 55.000000 110.000000 110.000000 0.726355 0.448332 0.073013 0.515826
18 55.000000 110.000000 110.000000 0.359258 0.386223 0.268574 0.805998
19 55.000000 110.000000 110.000000 0.901498 0.286932 0.323349 0.020402
20 55.000000 110.000000 110.000000 0.776356 0.210990 0.086628 0.587580
21 55.000000 110.000000 110.000000 0.588157 0.030923 0.473643 0.654812
22 55.000000 110.000000 110.000000 0.060375 0.646203 0.760077 0.032534
23 55.000000 110.000000 110.000000 0.503590 0.043359 0.503430 0.700768
24 55.000000 110.000000 110.000000 0.601549 0.442985 0.460695 0.479231
25 55.000000 110.000000 110.000000 0.645416 0.428217 0.590510 0.226642
26 55.000000 110.000000 110.000000 0.698357 0.663696 0.049899 0.263279
27 55.000000 110.000000 110.000000 0.303350 0.524786 0.201748 0.769335
28 55.000000 110.000000 110.000000 0.682558 0.648229 0.191198 0.278132
29 55.000000 110.000000 110.000000 0.528396 0.306962 0.775586 0.158233
30 55.000000 110.000000 110.000000 0.373207 0.078868 0.574779 0.723965
31 55.000000 110.000000 110.000000 0.331016 0.746176 0.220077 0.534057
32 55.000000 110.000000 110.000000 0.296538 0.032812 0.282060 0.911828
33 55.000000 110.000000 110.000000 0.396382 0.687412 0.371979 0.481641
34 55.000000 110.000000 110.000000 0.544691 0.761791 0.163606 0.310191
35 55.000000 110.000000 110.000000 0.479275 0.620197 0.033840 0.620085




