ITEM: TIMESTEP
0
ITEM: NUMBER OF ATOMS
65
ITEM: BOX BOUNDS
-500.000000 500.000000
-500.000000 500.000000
-500.000000 500.000000
ITEM: ATOMS id type x y z c_q[1] c_q[2] c_q[3] c_q[4]
1 1 -500.000000 -500.000000 -500.000000 0.422142 0.042944 0.778892 0.461822
2 1 -300.000000 -500.000000 -500.000000 0.020856 0.102486 0.251341 0.962231
3 1 -100.000000 -500.000000 -500.000000 0.031828 0.701799 0.284697 0.652236
4 1 100.000000 -500.000000 -500.000000 0.462993 0.660157 0.580403 0.113850
5 1 300.000000 -500.000000 -500.000000 0.444725 0.821927 0.340994 0.101878
6 1 -500.000000 -300.000000 -500.000000 0.609320 0.588040 0.531756 0.013153
7 1 -300.000000 -300.000000 -500.000000 0.677909 0.296939 0.046588 0.670892
8 1 -100.000000 -300.000000 -500.000000 0.101100 0.632568 0.736371 0.217703
9 1 100.000000 -300.000000 -500.000000 0.431678 0.733638 0.481048 0.209816
10 1 300.000000 -300.000000 -500.000000 0.597425 0.591435 0.495345 0.218911
11 1 -500.000000 -100.000000 -500.000000 0.625428 0.352938 0.418260 0.556177
12 1 -300.000000 -100.000000 -500.000000 0.601560 0.153234 0.264894 0.737886
13 1 -100.000000 -100.000000 -500.000000 0.878781 0.201724 0.355469 0.246361
14 1 100.000000 -100.000000 -500.000000 0.247525 0.522752 0.412351 0.703867
15 1 300.000000 -100.000000 -500.000000 0.755983 0.189376 0.501942 0.375075
16 1 -500.000000 100.000000 -500.000000 0.605037 0.470364 0.203668 0.609268
17 1 -300.000000 100.000000 -500.000000 0.799497 0.373379 0.176100 0.436327
18 1 -100.000000 100.000000 -500.000000 0.438931 0.423836 0.457721 0.646679
19 1 100.000000 100.000000 -500.000000 0.573064 0.035760 0.742322 0.345365
20 1 300.000000 100.000000 -500.000000 0.414087 0.015746 0.598207 0.685881
21 1 -500.000000 300.000000 -500.000000 0.614141 0.130456 0.776318 0.056061
22 1 -300.000000 300.000000 -500.000000 0.117719 0.776092 0.108605 0.609942
23 1 -100.000000 300.000000 -500.000000 0.052420 0.806206 0.406065 0.427079
24 1 100.000000 300.000000 -500.000000 0.575867 0.671799 0.317225 0.341222
25 1 300.000000 300.000000 -500.000000 0.354846 0.451521 0.537252 0.617716
26 1 -500.000000 -500.000000 -300.000000 0.233686 0.519654 0.668202 0.478389
27 1 -300.000000 -500.000000 -300.000000 0.499195 0.377963 0.502010 0.596602
28 1 -100.000000 -500.000000 -300.000000 0.053943 0.588759 0.297794 0.749514
29 1 100.000000 -500.000000 -300.000000 0.778190 0.282230 0.334524 0.450400
30 1 300.000000 -500.000000 -300.000000 0.007454 0.187848 0.871213 0.453481
31 1 -500.000000 -300.000000 -300.000000 0.273740 0.893616 0.340271 0.103596
32 1 -300.000000 -300.000000 -300.000000 0.065697 0.458411 0.876532 0.131283
33 1 -100.000000 -300.000000 -300.000000 0.739759 0.403182 0.366418 0.394890
34 1 100.000000 -300.000000 -300.000000 0.152711 0.697782 0.355628 0.602750
35 1 300.000000 -300.000000 -300.000000 0.320217 0.467090 0.443375 0.694771
36 1 -500.000000 -100.000000 -300.000000 0.693329 0.451577 0.558211 0.061431
37 1 -300.000000 -100.000000 -300.000000 0.535935 0.367323 0.640316 0.409685
38 1 -100.000000 -100.000000 -300.000000 0.825934 0.031956 0.057175 0.559949
39 1 100.000000 -100.000000 -300.000000 0.733586 0.004598 0.200469 0.649341
40 1 300.000000 -100.000000 -300.000000 0.398059 0.704434 0.169598 0.562636
41 1 -500.000000 100.000000 -300.000000 0.696927 0.371094 0.591531 0.163317
42 1 -300.000000 100.000000 -300.000000 0.015445 0.275563 0.105007 0.955406
43 1 -100.000000 100.000000 -300.000000 0.224221 0.627009 0.649345 0.367336
44 1 100.000000 100.000000 -300.000000 0.677680 0.000851 0.629851 0.379523
45 1 300.000000 100.000000 -300.000000 0.369605 0.609930 0.005000 0.700965
46 1 -500.000000 300.000000 -300.000000 0.678608 0.480641 0.555350 0.007879
47 1 -300.000000 300.000000 -300.000000 0.419507 0.096495 0.808546 0.401193
48 1 -100.000000 300.000000 -300.000000 0.680015 0.014247 0.359822 0.638675
49 1 100.000000 300.000000 -300.000000 0.446402 0.456391 0.539439 0.549034
50 1 300.000000 300.000000 -300.000000 0.748965 0.178164 0.153853 0.619385
51 1 -500.000000 -500.000000 -100.000000 0.381259 0.326323 0.532652 0.681496
52 1 -300.000000 -500.000000 -100.000000 0.081831 0.874514 0.218899 0.424984
53 1 -100.000000 -500.000000 -100.000000 0.461852 0.538010 0.425644 0.562197
54 1 100.000000 -500.000000 -100.000000 0.032130 0.648370 0.632739 0.422167
55 1 300.000000 -500.000000 -100.000000 0.281625 0.497906 0.731503 0.371053
56 1 -500.000000 -300.000000 -100.000000 0.354118 0.686382 0.634344 0.032990
57 1 -300.000000 -300.000000 -100.000000 0.322856 0.345093 0.000164 0.881291
58 1 -100.000000 -300.000000 -100.000000 0.151442 0.613424 0.354996 0.689024
59 1 100.000000 -300.000000 -100.000000 0.485699 0.178288 0.051001 0.854230
60 1 300.000000 -300.000000 -100.000000 0.022303 0.600980 0.796519 0.062312
61 1 -500.000000 -100.000000 -100.000000 0.499026 0.453232 0.495769 0.547509
62 1 -300.000000 -100.000000 -100.000000 0.409053 0.717271 0.360945 0.433493
63 1 -100.000000 -100.000000 -100.000000 0.100397 0.078768 0.926658 0.353582
64 1 100.000000 -100.000000 -100.000000 0.027922 0.681323 0.032926 0.730709
65 1 300.000000 -100.000000 -100.000000 0.682054 0.458863 0.331151 0.463235
