ITEM: TIMESTEP
0
ITEM: NUMBER OF ATOMS
40
ITEM: BOX BOUNDS
-500.000000 500.000000
-500.000000 500.000000
-500.000000 500.000000
ITEM: ATOMS id type x y z c_q[1] c_q[2] c_q[3] c_q[4]
1 1 -500.000000 -500.000000 -500.000000 0.626913 0.055698 0.322299 0.707107
2 1 -250.000000 -500.000000 -500.000000 0.028355 0.770427 0.417764 0.480741
3 1 0.000000 -500.000000 -500.000000 0.423164 0.540250 0.507613 0.520953
4 1 250.000000 -500.000000 -500.000000 0.731149 0.104892 0.199157 0.644015
5 1 -500.000000 -250.000000 -500.000000 0.753101 0.148389 0.309716 0.561156
6 1 -250.000000 -250.000000 -500.000000 0.726596 0.445966 0.520742 0.044730
7 1 0.000000 -250.000000 -500.000000 0.969453 0.038743 0.210880 0.119120
8 1 250.000000 -250.000000 -500.000000 0.137045 0.834020 0.052526 0.531856
9 1 -500.000000 0.000000 -500.000000 0.639374 0.394664 0.592438 0.290617
10 1 -250.000000 0.000000 -500.000000 0.395118 0.543741 0.511707 0.535148
11 1 0.000000 0.000000 -500.000000 0.030597 0.822399 0.442647 0.356073
12 1 250.000000 0.000000 -500.000000 0.689192 0.360896 0.497265 0.384052
13 1 -500.000000 250.000000 -500.000000 0.626425 0.547927 0.077013 0.549032
14 1 -250.000000 250.000000 -500.000000 0.523750 0.576023 0.558297 0.286684
15 1 0.000000 250.000000 -500.000000 0.469565 0.127657 0.636275 0.598637
16 1 250.000000 250.000000 -500.000000 0.230567 0.698715 0.147099 0.661058
17 1 -500.000000 -500.000000 -250.000000 0.022149 0.106628 0.907943 0.404697
18 1 -250.000000 -500.000000 -250.000000 0.669499 0.374862 0.453256 0.453662
19 1 0.000000 -500.000000 -250.000000 0.533658 0.237540 0.221355 0.780888
20 1 250.000000 -500.000000 -250.000000 0.037596 0.764659 0.642943 0.022515
21 1 -500.000000 -250.000000 -250.000000 0.607445 0.378237 0.663559 0.218260
22 1 -250.000000 -250.000000 -250.000000 0.508546 0.529210 0.656476 0.174234
23 1 0.000000 -250.000000 -250.000000 0.587942 0.644549 0.050565 0.486132
24 1 250.000000 -250.000000 -250.000000 0.818765 0.371115 0.235967 0.369077
25 1 -500.000000 0.000000 -250.000000 0.661346 0.479528 0.314644 0.483398
26 1 -250.000000 0.000000 -250.000000 0.621841 0.426716 0.522100 0.398295
27 1 0.000000 0.000000 -250.000000 0.202810 0.688457 0.562510 0.410460
28 1 250.000000 0.000000 -250.000000 0.378807 0.581307 0.514117 0.504254
29 1 -500.000000 250.000000 -250.000000 0.114090 0.730351 0.665744 0.101764
30 1 -250.000000 250.000000 -250.000000 0.287127 0.262158 0.721801 0.572569
31 1 0.000000 250.000000 -250.000000 0.251959 0.838872 0.411236 0.252381
32 1 250.000000 250.000000 -250.000000 0.274143 0.690906 0.267558 0.613113
33 1 -500.000000 -500.000000 0.000000 0.702355 0.635766 0.285125 0.145610
34 1 -250.000000 -500.000000 0.000000 0.161308 0.223260 0.774762 0.569103
35 1 0.000000 -500.000000 0.000000 0.349669 0.683809 0.160918 0.619873
36 1 250.000000 -500.000000 0.000000 0.600626 0.070979 0.564392 0.561846
37 1 -500.000000 -250.000000 0.000000 0.505511 0.492830 0.415403 0.573600
38 1 -250.000000 -250.000000 0.000000 0.017944 0.860810 0.465664 0.204549
39 1 0.000000 -250.000000 0.000000 0.313444 0.072326 0.424693 0.846261
40 1 250.000000 -250.000000 0.000000 0.581404 0.189474 0.713471 0.342093
