ITEM: TIMESTEP
0
ITEM: NUMBER OF ATOMS
35
ITEM: BOX BOUNDS pp pp pp
-5.0000000000000000e+02 5.0000000000000000e+02
-5.0000000000000000e+02 5.0000000000000000e+02
-5.0000000000000000e+02 5.0000000000000000e+02
ITEM: ATOMS id type x y z c_q[1] c_q[2] c_q[3] c_q[4] 
1 1 -500 -500 -500 0.371999 0.717485 0.536706 0.242443 
2 1 -250 -500 -500 0.746459 0.110456 0.649916 0.090593 
3 1 0 -500 -500 0.21801 0.565481 0.734966 0.304183 
4 1 250 -500 -500 0.67177 0.714574 0.178862 0.078208 
5 1 -500 -250 -500 0.40408 0.357134 0.656073 0.527961 
6 1 -250 -250 -500 0.26922 0.587245 0.711878 0.275486 
7 1 0 -250 -500 0.482334 0.31827 0.105232 0.809311 
8 1 250 -250 -500 0.166735 0.496907 0.744326 0.413838 
9 1 -500 0 -500 0.570209 0.681168 0.449081 0.095908 
10 1 -250 0 -500 0.750534 0.656766 0.057521 0.045274 
11 1 0 0 -500 0.346147 0.426137 0.701135 0.454972 
12 1 250 0 -500 0.566411 0.735375 0.068791 0.365609 
13 1 -500 250 -500 0.653416 0.323933 0.647754 0.220295 
14 1 -250 250 -500 0.412643 0.586955 0.694011 0.059651 
15 1 0 250 -500 0.139087 0.646698 0.740121 0.121069 
16 1 250 250 -500 0.543616 0.60443 0.152489 0.562043 
17 1 -500 -500 -250 0.490328 0.048279 0.854488 0.164613 
18 1 -250 -500 -250 0.307992 0.336118 0.674478 0.580728 
19 1 0 -500 -250 0.185908 0.716113 0.619042 0.263455 
20 1 250 -500 -250 0.6996 0.514398 0.272381 0.414443 
21 1 -500 -250 -250 0.760133 0.256427 0.14738 0.578552 
22 1 -250 -250 -250 0.380393 0.091874 0.619176 0.680795 
23 1 0 -250 -250 0.619788 0.689942 0.0934799 0.362085 
24 1 250 -250 -250 0.379868 0.804996 0.451489 0.061962 
25 1 -500 0 -250 0.567192 0.17261 0.728945 0.342254 
26 1 -250 0 -250 0.574483 0.600735 0.536893 0.144335 
27 1 0 0 -250 0.111288 0.069424 0.950948 0.280166 
28 1 250 0 -250 0.172323 0.47103 0.020811 0.864871 
29 1 -500 250 -250 0.435575 0.244818 0.022968 0.865916 
30 1 -250 250 -250 0.454955 0.632587 0.455628 0.43041 
31 1 0 250 -250 0.465628 0.118795 0.117914 0.869008 
32 1 250 250 -250 0.246436 0.754274 0.597327 0.116361 
33 1 -500 -500 0 0.424025 0.134859 0.535282 0.717975 
34 1 -250 -500 0 0.58588 0.715234 8.7e-05 0.381031 
35 1 0 -500 0 0.517308 0.152476 0.376117 0.753445 
ITEM: TIMESTEP
10000
ITEM: NUMBER OF ATOMS
35
ITEM: BOX BOUNDS pp pp pp
-5.0000000000000000e+02 5.0000000000000000e+02
-5.0000000000000000e+02 5.0000000000000000e+02
-5.0000000000000000e+02 5.0000000000000000e+02
ITEM: ATOMS id type x y z c_q[1] c_q[2] c_q[3] c_q[4] 
3 1 -1.56044 -494.624 -499.026 0.211726 0.587344 0.707997 0.330059 
5 1 -499.106 -248.675 -495.496 0.426068 0.341651 0.647248 0.531799 
6 1 -252.198 -247.154 -497.323 0.23875 0.530904 0.77138 0.257121 
8 1 251.636 -251 -499.312 0.164638 0.489516 0.757648 0.399047 
10 1 -252.445 -0.74908 -498.877 0.783146 0.618985 -0.00318517 0.0594102 
14 1 -256.848 248.006 499.753 0.417314 0.603599 0.678631 0.0312681 
15 1 1.42816 245.12 -496.546 0.0998396 0.679725 0.715418 0.127215 
1 1 -499.008 -499.515 498.954 0.365903 0.723406 0.540987 0.223902 
4 1 252.056 496.731 -499.664 0.658654 0.728594 0.185566 0.0298505 
17 1 -497.005 500.103 -255.518 0.474564 0.0127591 0.8538 0.213661 
18 1 -245.783 -498.989 -248.201 0.374627 0.326158 0.656644 0.567534 
19 1 1.53041 -498.181 -248.047 0.236281 0.695501 0.624036 0.266513 
22 1 -251.701 -247.071 -247.855 0.399348 0.140866 0.599464 0.679207 
23 1 -7.47479 -246.836 -246.241 0.631078 0.660959 0.0945324 0.394889 
24 1 252.763 -250.178 -251.734 0.381819 0.802587 0.452247 0.0744347 
21 1 499.584 -250.018 -245.955 0.795302 0.280717 0.118884 0.523984 
25 1 -499.873 -2.30859 -252.441 0.594261 0.16869 0.713757 0.330074 
26 1 -254.83 3.35909 -252.984 0.618748 0.565977 0.528934 0.130575 
27 1 -7.66911 0.542154 -258.728 0.104915 0.088608 0.946075 0.293399 
28 1 247.424 -0.611313 -256.304 0.165785 0.444688 0.0187832 0.880009 
29 1 -495.768 247.987 -248.92 0.452276 0.233356 0.0434876 0.859709 
30 1 -245.105 248.992 -253.449 0.453362 0.652545 0.456607 0.400197 
31 1 -5.32883 249.353 -250.337 0.515383 0.0645525 0.108536 0.847605 
32 1 248.735 246.655 -252.179 0.209332 0.79012 0.574141 0.0474523 
20 1 257.797 498.141 -250.308 0.693505 0.525918 0.258589 0.419038 
34 1 -255.681 -500.247 6.6831 0.582711 0.7218 -0.00311188 0.373421 
35 1 -3.01171 -499.052 3.86754 0.547835 0.169984 0.361619 0.734993 
33 1 493.563 -499.196 -0.783463 0.439234 0.16202 0.489791 0.735478 
7 1 0.0834832 -250.502 496.466 0.436879 0.361474 0.15918 0.808167 
9 1 499.074 2.86089 497.522 0.592415 0.68546 0.420017 0.0526711 
11 1 -4.2443 3.2665 498.663 0.361729 0.35578 0.730052 0.457817 
12 1 254.266 1.30144 495.34 0.601904 0.695133 0.0510132 0.389741 
13 1 -495.046 246.766 -499.404 0.646926 0.326594 0.667543 0.170907 
16 1 244.007 251.456 498.138 0.575152 0.617346 0.144175 0.517008 
2 1 -249.866 499.922 497.874 0.741844 0.0715911 0.660897 0.0880753 
ITEM: TIMESTEP
20000
ITEM: NUMBER OF ATOMS
35
ITEM: BOX BOUNDS pp pp pp
-5.0000000000000000e+02 5.0000000000000000e+02
-5.0000000000000000e+02 5.0000000000000000e+02
-5.0000000000000000e+02 5.0000000000000000e+02
ITEM: ATOMS id type x y z c_q[1] c_q[2] c_q[3] c_q[4] 
2 1 -251.256 -497.875 -497.558 0.746027 0.0658566 0.659631 0.0631881 
3 1 0.438514 -493.356 -499.071 0.215889 0.597882 0.679714 0.365949 
4 1 256.124 -500.079 -496.266 0.669707 0.712514 0.197151 0.0703366 
6 1 -253.699 -239.26 -492.733 0.268021 0.569033 0.746097 0.218416 
8 1 250.867 -248.296 -499.069 0.130922 0.51155 0.73753 0.420982 
5 1 499.642 -251.915 -493.45 0.434598 0.392682 0.628255 0.512076 
10 1 -252.834 1.04965 -499.992 0.773827 0.625416 0.0631564 0.0778311 
9 1 -498.228 3.06931 -498.844 0.600728 0.694008 0.393562 0.0508751 
11 1 -6.75709 4.94745 -495.393 0.326917 0.322128 0.727554 0.509926 
15 1 5.61184 240.967 -499.624 0.0846568 0.684248 0.718711 0.0899543 
17 1 -494.648 -495.565 -260.325 0.473402 0.0337894 0.857301 0.199459 
18 1 -249.536 -499.828 -252.74 0.372436 0.311316 0.664657 0.567983 
21 1 -495.247 -247.436 -244.846 0.790747 0.237314 0.132508 0.548492 
22 1 -249.185 -244.283 -242.887 0.381159 0.128872 0.615276 0.677898 
23 1 0.261425 -244.588 -244.128 0.645185 0.664574 0.0841669 0.367415 
24 1 251.801 -253.85 -250.122 0.356419 0.7712 0.522972 0.068677 
25 1 -497.689 -4.56876 -252.928 0.640656 0.193312 0.690288 0.275123 
26 1 -253.537 4.41292 -254.498 0.595339 0.577973 0.55084 0.0899668 
27 1 -3.36929 -0.716073 -255.961 0.102205 0.0485291 0.947653 0.298586 
28 1 248.74 -0.290818 -253.072 0.175208 0.446059 0.00313933 0.877681 
30 1 -246.55 244.196 -251.048 0.45922 0.670456 0.44723 0.373619 
31 1 -10.0137 249.97 -245.445 0.531499 0.0116867 0.0838988 0.842813 
32 1 250.768 245.195 -249.612 0.215507 0.779809 0.58354 0.0702597 
29 1 495.881 243.106 -249.337 0.474489 0.246179 0.0831589 0.841036 
19 1 2.51976 499.009 -249.901 0.274284 0.726735 0.574456 0.25812 
20 1 252.575 493.182 -249.216 0.688634 0.582848 0.269949 0.33645 
35 1 -4.86497 -497.851 3.55447 0.557708 0.173846 0.366641 0.724095 
33 1 496.039 -499.274 0.173926 0.409877 0.139885 0.465109 0.77208 
34 1 -256.537 499.744 8.40951 0.595914 0.729916 0.0064727 0.334765 
1 1 -492.56 -498.581 497.582 0.34438 0.74128 0.533321 0.217887 
7 1 5.37767 -251.262 494.939 0.40884 0.366446 0.112265 0.828229 
12 1 252.432 4.4102 491.756 0.573494 0.698971 0.0407484 0.425304 
13 1 -493.539 245.703 497.728 0.628187 0.35288 0.688503 0.0825858 
14 1 -255.016 245.484 497.501 0.39111 0.6163 0.683356 0.0152267 
16 1 241.56 248.738 -499.779 0.549089 0.651386 0.190494 0.48776 
ITEM: TIMESTEP
30000
ITEM: NUMBER OF ATOMS
35
ITEM: BOX BOUNDS pp pp pp
-5.0000000000000000e+02 5.0000000000000000e+02
-5.0000000000000000e+02 5.0000000000000000e+02
-5.0000000000000000e+02 5.0000000000000000e+02
ITEM: ATOMS id type x y z c_q[1] c_q[2] c_q[3] c_q[4] 
3 1 -3.97306 -492.281 -499.769 0.234889 0.584693 0.68979 0.356583 
5 1 -494.077 -250.807 -494.516 0.404495 0.441398 0.616627 0.511198 
6 1 -254.678 -240.207 -493.209 0.282509 0.588412 0.727494 0.211451 
8 1 256.336 -248.269 -499.77 0.138366 0.554857 0.713514 0.404829 
11 1 -3.86508 9.10432 -495.602 0.332038 0.332755 0.724568 0.50401 
9 1 499.751 0.229869 -499.021 0.586312 0.706918 0.393637 0.039443 
13 1 -497.025 242.557 499.682 0.637293 0.352208 0.681936 0.0690614 
14 1 -254.219 237.063 -498.782 0.372482 0.654819 0.657154 0.0248619 
15 1 2.4946 238.746 -499.267 0.0685957 0.675116 0.730924 0.0725394 
2 1 -248.302 -499.62 -493.611 0.731924 0.0812391 0.672999 0.0689961 
4 1 256.37 497.079 -495.465 0.660243 0.731575 0.166729 0.0328371 
17 1 -488.447 -492.211 -263.273 0.49916 0.0272943 0.837441 0.220875 
18 1 -247.277 -496.186 -256.337 0.367234 0.255248 0.694612 0.563473 
19 1 1.34009 -498.376 -247.125 0.255881 0.736186 0.57775 0.242404 
21 1 -495.84 -244.721 -247.55 0.797364 0.22106 0.0865872 0.554839 
22 1 -246.397 -247.944 -243.598 0.345683 0.15448 0.626895 0.680912 
23 1 -0.519323 -238.508 -240.486 0.618091 0.678857 0.115476 0.379186 
24 1 257.481 -261.53 -247.776 0.399723 0.78558 0.466641 0.0730185 
25 1 -492.289 -4.61104 -255.237 0.632726 0.224118 0.674731 0.306866 
26 1 -251.364 9.00109 -259.428 0.581677 0.59026 0.555445 0.0687357 
27 1 -7.71949 2.93796 -256.229 0.145158 0.00746177 0.940486 0.307179 
28 1 241.081 2.89132 -252.578 0.189754 0.454662 0.0123754 0.870128 
30 1 -246.17 241.076 -251.992 0.427781 0.711084 0.410663 0.377782 
31 1 -6.49264 248.353 -242.876 0.534058 0.0145006 0.036736 0.844525 
32 1 252.86 244.313 -255.092 0.238211 0.769968 0.586101 0.0830119 
29 1 495.315 244.764 -249.17 0.469097 0.213935 0.0694349 0.854025 
20 1 251.625 487.666 -251.957 0.686002 0.586191 0.282905 0.325186 
33 1 498.992 498.894 -5.23867 0.36519 0.149202 0.503536 0.768653 
34 1 -256.477 -498.624 12.8689 0.57438 0.771885 -0.0405964 0.269507 
35 1 -5.82258 -490.578 2.85693 0.53255 0.165078 0.391424 0.73207 
1 1 -490.853 -499.195 496.907 0.333498 0.769563 0.498716 0.218709 
7 1 1.6317 -256.192 496.599 0.458803 0.330449 0.0458746 0.823528 
10 1 -251.557 -0.442574 497.81 0.775264 0.625556 0.0573299 0.0660202 
12 1 252.458 -0.217527 493.099 0.584366 0.711384 0.0210614 0.38988 
16 1 247.157 246.293 497.824 0.529607 0.638334 0.17429 0.530726 
ITEM: TIMESTEP
40000
ITEM: NUMBER OF ATOMS
35
ITEM: BOX BOUNDS pp pp pp
-5.0000000000000000e+02 5.0000000000000000e+02
-5.0000000000000000e+02 5.0000000000000000e+02
-5.0000000000000000e+02 5.0000000000000000e+02
ITEM: ATOMS id type x y z c_q[1] c_q[2] c_q[3] c_q[4] 
2 1 -242.815 -496.749 -489.852 0.740554 0.0915323 0.664474 0.0409334 
3 1 -1.95727 -489.207 -497.162 0.248522 0.572257 0.696622 0.354225 
5 1 -489.74 -250.141 -488.336 0.359174 0.4516 0.605734 0.547849 
6 1 -255.536 -240.012 -493.106 0.240586 0.638885 0.6958 0.223175 
11 1 -2.05181 9.77116 -496.992 0.328713 0.34051 0.730049 0.49298 
14 1 -248.392 229.335 -493.749 0.352501 0.655793 0.666945 0.0293855 
15 1 -2.16199 239.075 -494.582 0.0712858 0.687719 0.71621 0.0948942 
17 1 -486.511 -494.512 -261.666 0.576379 0.0835321 0.791851 0.183798 
18 1 -250.496 -493.959 -254.101 0.415528 0.278056 0.654583 0.567047 
19 1 2.44895 -493.94 -248.465 0.273495 0.705156 0.601236 0.257821 
21 1 -492.982 -237.603 -248.784 0.782925 0.21401 0.078024 0.578913 
22 1 -249.078 -243.335 -239.214 0.306132 0.150267 0.613148 0.712568 
23 1 5.11162 -236.84 -240.829 0.583742 0.68063 0.223289 0.382271 
24 1 256.612 -264.729 -249.713 0.419212 0.76656 0.486282 0.0132918 
25 1 -492.152 -1.45255 -261.92 0.556284 0.27577 0.731358 0.28216 
26 1 -250.397 6.44884 -265.083 0.593093 0.563689 0.574151 0.0290879 
27 1 -3.73691 7.52393 -254.678 0.125991 0.0244709 0.947516 0.292815 
28 1 240.008 4.79927 -254.126 0.168385 0.461447 0.0497723 0.869618 
30 1 -249.514 242.576 -256.877 0.393368 0.72576 0.424932 0.371439 
31 1 -5.74373 250.763 -241.47 0.534614 0.0312327 0.0638375 0.842103 
32 1 257.36 238.256 -252.614 0.245909 0.771187 0.5766 0.111048 
29 1 495.741 238.601 -250.795 0.468568 0.159269 0.0684216 0.866254 
20 1 249.039 485.694 -249.614 0.686929 0.576823 0.305222 0.319755 
33 1 -499.654 -496.325 -5.18181 0.372978 0.166923 0.496653 0.765742 
35 1 -12.9821 -487.072 -0.3985 0.454577 0.16354 0.426639 0.764587 
34 1 -253.934 496.819 13.1243 0.579903 0.761922 -0.0875864 0.274803 
1 1 -494.821 -497.227 496.165 0.335031 0.754567 0.504271 0.253167 
7 1 -1.37176 -256.568 498.619 0.484277 0.355534 0.0538773 0.797602 
8 1 252.345 -245.247 498.742 0.100741 0.564692 0.71881 0.392793 
9 1 -497.038 -2.83852 499.583 0.591791 0.705395 0.390122 -0.00258101 
10 1 -251.532 -1.19753 495.739 0.764682 0.637793 0.0742039 0.0545375 
12 1 254.888 -8.4447 494.224 0.573748 0.725249 0.0185275 0.380109 
13 1 -496.159 242.608 496.988 0.633789 0.336603 0.695909 0.0268308 
16 1 240.199 245.881 495.294 0.513455 0.62604 0.20392 0.550321 
4 1 253.823 497.917 499.093 0.643716 0.751986 0.122567 0.0715846 
ITEM: TIMESTEP
50000
ITEM: NUMBER OF ATOMS
35
ITEM: BOX BOUNDS pp pp pp
-5.0000000000000000e+02 5.0000000000000000e+02
-5.0000000000000000e+02 5.0000000000000000e+02
-5.0000000000000000e+02 5.0000000000000000e+02
ITEM: ATOMS id type x y z c_q[1] c_q[2] c_q[3] c_q[4] 
2 1 -243.233 -499.888 -494.166 0.759296 0.0880343 0.64409 0.0294532 
3 1 -0.166688 -493.3 -495.104 0.250226 0.60804 0.665615 0.353032 
5 1 -486.084 -251.26 -489.185 0.376498 0.481887 0.588133 0.529278 
6 1 -260.033 -237.863 -492.239 0.26564 0.652943 0.665303 0.245912 
9 1 -497.519 -5.50482 -493.845 0.582675 0.714478 0.386266 -0.0284481 
11 1 -1.33047 8.90906 -495.434 0.334934 0.331419 0.740916 0.478565 
14 1 -249.985 227 -493.499 0.378726 0.643079 0.664788 0.0327514 
15 1 -6.8721 239.953 -497.7 0.0524177 0.691631 0.705852 0.143778 
17 1 -489.869 -494.745 -263.409 0.622112 0.0539894 0.760656 0.17738 
18 1 -247.317 -494.806 -250.216 0.449098 0.219544 0.634489 0.589521 
19 1 5.71882 -498.476 -253.648 0.305354 0.683084 0.593022 0.297455 
21 1 -494.334 -238.561 -247.046 0.777407 0.258392 0.107285 0.563348 
22 1 -246.785 -244.913 -244.985 0.309027 0.124559 0.614808 0.714842 
23 1 3.45785 -232.941 -239.132 0.609013 0.691929 0.180312 0.343257 
24 1 255.261 -264.493 -245.821 0.441501 0.786309 0.431974 0.0139275 
25 1 -489.718 3.28351 -265.644 0.545653 0.26418 0.748663 0.268282 
26 1 -247.789 4.97358 -266.439 0.645136 0.537251 0.541179 0.0478145 
27 1 -3.80993 4.68318 -254.869 0.116376 0.0415086 0.951533 0.281636 
28 1 241.136 5.69103 -253.831 0.157052 0.511591 0.100081 0.838804 
30 1 -253.936 243.877 -254.97 0.394347 0.699313 0.459038 0.380441 
31 1 -7.06735 249.643 -244.027 0.554663 0.0455657 0.080583 0.82691 
32 1 251.622 239.667 -254.878 0.224022 0.752506 0.612302 0.0929271 
29 1 498.084 230.689 -248.25 0.458698 0.230265 0.0512104 0.85671 
20 1 251.339 488.954 -249.172 0.651122 0.599103 0.312362 0.345754 
35 1 -17.5702 -486.945 -3.89363 0.46203 0.117411 0.42672 0.76854 
33 1 -498.867 499.29 -10.7722 0.359339 0.156432 0.49303 0.776741 
34 1 -255.103 497.693 12.0164 0.562771 0.788496 -0.101 0.22663 
1 1 -497.671 -498.016 498.907 0.325527 0.741165 0.544572 0.219425 
4 1 255.899 -498.585 500.076 0.625983 0.768755 0.117578 0.0577531 
7 1 -0.865074 -252.945 499.535 0.492727 0.371991 0.0222015 0.786352 
8 1 256.367 -243.218 497.434 0.127352 0.557894 0.720084 0.392446 
12 1 254.458 -12.6964 489.555 0.570888 0.730974 0.0612705 0.368795 
10 1 -256.47 5.03782 492.013 0.764629 0.640942 0.0566567 0.036416 
13 1 -494.116 249.926 498.24 0.637987 0.364556 0.676813 0.0446698 
16 1 239.46 241.358 496.462 0.490829 0.640739 0.210354 0.551627 
ITEM: TIMESTEP
60000
ITEM: NUMBER OF ATOMS
35
ITEM: BOX BOUNDS pp pp pp
-5.0000000000000000e+02 5.0000000000000000e+02
-5.0000000000000000e+02 5.0000000000000000e+02
-5.0000000000000000e+02 5.0000000000000000e+02
ITEM: ATOMS id type x y z c_q[1] c_q[2] c_q[3] c_q[4] 
2 1 -242.521 -497.903 -489.083 0.750825 0.0800941 0.654971 -0.029336 
3 1 -0.0358263 -489.113 -495.485 0.296464 0.619631 0.631663 0.359401 
4 1 260.308 -495.332 -499.109 0.639207 0.758606 0.103724 0.0719189 
5 1 -489.905 -254.607 -485.857 0.367502 0.458113 0.572913 0.571704 
6 1 -265.803 -237.711 -490.836 0.275769 0.665649 0.652144 0.235734 
7 1 -1.29151 -257.055 -498.866 0.469473 0.413856 0.0170135 0.779762 
9 1 -495.583 -8.75261 -494.101 0.583667 0.716176 0.380968 0.0358868 
11 1 -4.80307 6.67196 -495.846 0.274124 0.288231 0.770158 0.498633 
13 1 -493.983 253.579 -499.585 0.651836 0.344232 0.672746 0.0634658 
14 1 -254.742 229.15 -489.435 0.359118 0.654389 0.665094 0.0214341 
15 1 0.471142 244.891 -494.03 0.0185777 0.65971 0.743502 0.107899 
17 1 -486.077 -496.458 -261.85 0.570542 0.048686 0.783964 0.239818 
18 1 -248.316 -494.049 -248.121 0.468936 0.213453 0.636506 0.573931 
19 1 7.17027 -496.844 -247.593 0.288476 0.684903 0.596908 0.302307 
21 1 -491.59 -241.03 -247.297 0.780441 0.271046 0.106156 0.553333 
22 1 -245.334 -239.056 -251.015 0.298667 0.130156 0.60182 0.729157 
23 1 1.30263 -228.758 -241.999 0.655167 0.672488 0.11535 0.324361 
24 1 254.233 -262.756 -242.892 0.424488 0.810388 0.403177 0.0230068 
25 1 -486.444 3.65073 -265.231 0.551759 0.318918 0.727376 0.254514 
26 1 -248.648 4.58064 -266.178 0.631145 0.578515 0.507483 0.0971476 
27 1 -2.48794 0.568059 -257.597 0.103233 0.01782 0.964137 0.243856 
28 1 238.462 3.11294 -259.489 0.168308 0.475313 0.0661926 0.861027 
30 1 -255.253 244.244 -247.319 0.41779 0.680658 0.43697 0.41378 
31 1 -6.34246 246.484 -240.318 0.554604 0.0160608 0.0830587 0.827803 
32 1 254.51 242.074 -253.931 0.237483 0.759394 0.602152 0.0658416 
29 1 495.804 231.059 -248.164 0.487855 0.259547 0.0800957 0.829589 
20 1 255.377 484.475 -249.609 0.661507 0.57877 0.366548 0.305084 
35 1 -15.9532 -486.386 0.319586 0.442071 0.125352 0.470203 0.753505 
33 1 497.961 -495.508 -15.0237 0.360236 0.114841 0.481312 0.79081 
34 1 -252.729 494.786 9.25766 0.581421 0.785827 -0.0981966 0.1865 
1 1 -494.923 498.889 498.201 0.304774 0.723873 0.570171 0.240884 
8 1 255.672 -239.128 499.591 0.127105 0.538781 0.735499 0.390641 
12 1 252.62 -7.71403 491.185 0.530221 0.748014 0.0672245 0.393475 
10 1 -258.842 14.6668 489.254 0.771172 0.632404 0.0608162 0.0407451 
16 1 237.097 239.794 497.729 0.432923 0.650976 0.237095 0.57671 
ITEM: TIMESTEP
70000
ITEM: NUMBER OF ATOMS
35
ITEM: BOX BOUNDS pp pp pp
-5.0000000000000000e+02 5.0000000000000000e+02
-5.0000000000000000e+02 5.0000000000000000e+02
-5.0000000000000000e+02 5.0000000000000000e+02
ITEM: ATOMS id type x y z c_q[1] c_q[2] c_q[3] c_q[4] 
2 1 -244.293 -498.317 -484.164 0.784634 0.0578884 0.617145 -0.0114212 
3 1 -3.18018 -489.337 -495.156 0.35296 0.604395 0.572467 0.427091 
5 1 -490.484 -251.144 -484.349 0.369947 0.439719 0.569862 0.587404 
6 1 -265.679 -233.056 -492.269 0.260539 0.671798 0.646773 0.249983 
7 1 -7.01395 -262.718 -493.211 0.476679 0.474693 -0.00116694 0.739894 
8 1 249.512 -237.871 -498.605 0.112756 0.553061 0.725367 0.394021 
9 1 -494.199 -7.85686 -489.165 0.57974 0.713299 0.392349 0.0341841 
11 1 -3.09879 8.23906 -490.26 0.233736 0.335908 0.76119 0.503114 
13 1 -493.351 252.068 -499.721 0.636671 0.329168 0.689924 0.101505 
14 1 -259.354 229.133 -491.727 0.361009 0.613346 0.699216 0.0676535 
15 1 -4.24174 243.891 -489.435 -0.0111584 0.692221 0.717986 0.0721241 
17 1 -487.001 -495.276 -265.545 0.550572 0.0969587 0.799008 0.221486 
18 1 -250.89 -497.389 -253.161 0.499008 0.192742 0.61966 0.574337 
19 1 3.9711 -494.319 -246.942 0.215263 0.701519 0.614711 0.289246 
21 1 -494.136 -242.065 -241.274 0.77814 0.278758 0.111767 0.551635 
22 1 -248.079 -238.085 -253.308 0.282854 0.134022 0.600528 0.735798 
23 1 -2.52706 -228.475 -245.968 0.636179 0.685596 0.116191 0.334266 
24 1 253.731 -260.031 -242.802 0.420549 0.819647 0.388994 -0.000926144 
25 1 -485.161 3.0173 -268.901 0.578131 0.303928 0.714981 0.249389 
26 1 -248.92 6.02697 -266.875 0.632585 0.530531 0.547356 0.137024 
27 1 -3.76965 1.80205 -256.642 0.0826565 0.0205819 0.960618 0.264496 
28 1 239.252 7.8366 -261.4 0.162862 0.424754 0.0684575 0.887904 
30 1 -255.8 243.985 -244.181 0.410213 0.650642 0.489544 0.410776 
31 1 -0.734005 244.953 -235.071 0.470551 0.0150756 0.0427232 0.881209 
32 1 257.362 247.094 -261.817 0.30244 0.749825 0.584192 0.0708022 
29 1 495.394 237.562 -247.126 0.459088 0.285127 0.0515064 0.839814 
20 1 252.687 480.485 -254.556 0.667527 0.571185 0.375102 0.295726 
35 1 -17.3353 -487.571 0.437667 0.452351 0.142494 0.42142 0.772968 
33 1 -500.223 -498.814 -6.5825 0.38138 0.111583 0.504013 0.766857 
34 1 -248.215 493.244 12.4233 0.592635 0.793367 -0.0545276 0.127983 
4 1 257.214 -493.741 495.879 0.658692 0.744436 0.0812819 0.0730228 
12 1 255.739 -6.41097 493.41 0.537983 0.721935 0.0376011 0.433555 
10 1 -258.128 13.8729 490.268 0.768841 0.63375 0.0430299 0.0734349 
16 1 242.491 238.618 493.197 0.410093 0.674584 0.230255 0.568985 
1 1 -495.046 493.348 498.247 0.298842 0.710798 0.600388 0.212115 
ITEM: TIMESTEP
80000
ITEM: NUMBER OF ATOMS
35
ITEM: BOX BOUNDS pp pp pp
-5.0000000000000000e+02 5.0000000000000000e+02
-5.0000000000000000e+02 5.0000000000000000e+02
-5.0000000000000000e+02 5.0000000000000000e+02
ITEM: ATOMS id type x y z c_q[1] c_q[2] c_q[3] c_q[4] 
2 1 -247.279 -498.68 -488.489 0.763911 0.0929052 0.637785 -0.0322324 
3 1 -3.22088 -490.85 -496.331 0.373214 0.54793 0.613955 0.428418 
5 1 -486.38 -256.619 -481.231 0.359437 0.421947 0.592463 0.584597 
6 1 -265.026 -231.523 -494.654 0.244076 0.673964 0.6575 0.232147 
7 1 -8.43573 -262.95 -495.444 0.493041 0.423135 -0.022966 0.759829 
9 1 -495.772 -5.31696 -492.955 0.567526 0.700767 0.428494 0.0568524 
11 1 -3.54919 13.9545 -488.809 0.253816 0.308758 0.779382 0.482504 
13 1 -490.613 260.798 -496.631 0.633611 0.317627 0.693357 0.130027 
14 1 -261.287 228.736 -495.922 0.381562 0.548669 0.738417 0.0900683 
15 1 0.66568 241.173 -486.511 -0.0332511 0.633014 0.771648 0.0524113 
1 1 -485.59 493.595 -499.819 0.278139 0.727636 0.591716 0.2075 
17 1 -488.636 -499.75 -266.189 0.536318 0.112306 0.816377 0.182424 
19 1 4.10268 -491.614 -246.223 0.275052 0.721145 0.571395 0.278934 
21 1 -498.894 -240.35 -244.733 0.765523 0.285773 0.156399 0.55484 
22 1 -248.251 -239.665 -261.555 0.307033 0.197568 0.632936 0.682708 
23 1 2.18037 -228.435 -241.343 0.615826 0.705311 0.0847438 0.340754 
24 1 257.093 -262.029 -238.662 0.467108 0.790276 0.396577 -0.000598179 
25 1 -489.062 8.00079 -266.295 0.616551 0.315064 0.680731 0.239177 
26 1 -244.154 5.31672 -269.275 0.61368 0.535258 0.561059 0.148689 
27 1 -5.19165 5.08039 -260.746 0.0767414 0.00683952 0.958509 0.274454 
28 1 235.303 9.23855 -262.443 0.17793 0.423883 0.0666313 0.885564 
30 1 -256.229 245.582 -243.709 0.385398 0.675573 0.489998 0.393665 
31 1 3.38981 246.621 -237.965 0.45353 0.0127538 0.0398583 0.890258 
32 1 256.142 244.582 -263.319 0.29469 0.77473 0.555952 0.0621984 
29 1 490.57 243.971 -244.814 0.458602 0.232167 0.0420083 0.856749 
18 1 -250.402 498.528 -254.097 0.464594 0.219128 0.636036 0.575841 
20 1 254.93 477.46 -253.22 0.662005 0.562277 0.413647 0.272927 
35 1 -16.0161 -484.363 -6.40938 0.490574 0.127841 0.403209 0.761851 
33 1 495.359 -495.235 -7.74592 0.331499 0.116622 0.500795 0.791019 
34 1 -248.114 494.247 12.0761 0.608237 0.784657 -0.0515388 0.108188 
4 1 258.015 -493.718 491.586 0.685192 0.723615 0.0750267 0.0355572 
8 1 248.832 -241.574 498.386 0.153342 0.54737 0.714778 0.407388 
12 1 255.455 -4.60283 492.25 0.526665 0.725634 0.0842203 0.434726 
10 1 -258.296 14.1131 491.598 0.748848 0.659618 0.0630367 -0.0125462 
16 1 239.055 235.501 490.486 0.388929 0.701517 0.254755 0.5401 
ITEM: TIMESTEP
90000
ITEM: NUMBER OF ATOMS
35
ITEM: BOX BOUNDS pp pp pp
-5.0000000000000000e+02 5.0000000000000000e+02
-5.0000000000000000e+02 5.0000000000000000e+02
-5.0000000000000000e+02 5.0000000000000000e+02
ITEM: ATOMS id type x y z c_q[1] c_q[2] c_q[3] c_q[4] 
2 1 -252.463 -497.05 -486.527 0.733327 0.105311 0.671222 -0.0245418 
3 1 -3.20656 -494.316 -495.372 0.354883 0.533295 0.644443 0.417551 
5 1 -490.871 -262.891 -473.797 0.350161 0.394784 0.581706 0.618992 
6 1 -263.073 -230.347 -492.683 0.25994 0.685971 0.652476 0.190132 
7 1 -4.51315 -267.621 -493.277 0.509628 0.447567 0.0299591 0.734211 
8 1 251.523 -244.587 -498.679 0.160606 0.56032 0.699093 0.414145 
9 1 -494.973 -5.83602 -491.071 0.552327 0.703855 0.442973 0.0574274 
11 1 -4.61473 11.9464 -487.394 0.268486 0.311745 0.780365 0.470914 
13 1 -492.643 259.32 -495.316 0.611395 0.283389 0.728334 0.124161 
14 1 -259.074 224.465 -496.616 0.383149 0.579702 0.715379 0.0733164 
15 1 1.52957 241.309 -486.011 -0.120829 0.60443 0.78627 0.0429404 
1 1 -490.043 490.982 -498.13 0.239656 0.76366 0.560143 0.213607 
18 1 -252.62 499.918 -254.244 0.481947 0.189357 0.609269 0.600551 
19 1 4.7614 -487.793 -247.253 0.229678 0.722834 0.580321 0.296625 
21 1 -498.547 -237.928 -244.997 0.748384 0.270944 0.154522 0.585349 
22 1 -252.589 -240.963 -259.221 0.338272 0.152505 0.618872 0.692324 
23 1 4.4204 -224.284 -245.77 0.571379 0.713063 0.0437469 0.403922 
24 1 260.056 -265.548 -245.155 0.46703 0.775929 0.42377 0.015335 
26 1 -239.384 -1.30488 -262.173 0.598064 0.534634 0.575504 0.158999 
25 1 -491.934 12.7611 -265.645 0.618201 0.314504 0.670628 0.263005 
27 1 -7.03707 5.28439 -262.282 0.123485 0.100987 0.944739 0.286395 
28 1 237.193 7.04026 -266.266 0.17094 0.400529 0.0906352 0.895624 
30 1 -253.704 247.277 -240.024 0.405391 0.660279 0.49052 0.398849 
31 1 6.24139 246.294 -237.689 0.460546 -0.00127274 0.0366987 0.886876 
32 1 255.045 245.389 -264.076 0.279939 0.77099 0.571064 0.0330884 
29 1 492.382 241.92 -248.038 0.450171 0.225954 0.0295994 0.863374 
17 1 -484.386 496.992 -261.324 0.548942 0.112573 0.807366 0.1848 
20 1 256.882 478.28 -252.033 0.634599 0.583093 0.413213 0.294179 
35 1 -18.8108 -481.1 -4.59663 0.545473 0.180462 0.407912 0.709578 
33 1 491.608 -494.353 -7.44497 0.314922 0.0635203 0.530139 0.784692 
34 1 -248.971 491.283 14.1071 0.624566 0.768891 -0.0874222 0.105272 
4 1 255.531 -490.636 487.849 0.681624 0.727018 0.0817281 -0.0123999 
12 1 253.374 -2.21734 489.296 0.565946 0.744701 0.0827944 0.343906 
10 1 -259.565 15.2679 491.319 0.726104 0.680921 0.0872645 -0.0387918 
16 1 235.433 232.103 484.912 0.34668 0.739811 0.239796 0.524396 
ITEM: TIMESTEP
100000
ITEM: NUMBER OF ATOMS
35
ITEM: BOX BOUNDS pp pp pp
-5.0000000000000000e+02 5.0000000000000000e+02
-5.0000000000000000e+02 5.0000000000000000e+02
-5.0000000000000000e+02 5.0000000000000000e+02
ITEM: ATOMS id type x y z c_q[1] c_q[2] c_q[3] c_q[4] 
2 1 -254.673 -496.005 -483.5 0.719555 0.0984326 0.686933 -0.025966 
3 1 -3.81952 -491.341 -497.368 0.362153 0.515564 0.645754 0.431324 
5 1 -492.123 -263.402 -476.002 0.315546 0.364813 0.561395 0.672441 
6 1 -264.7 -232.045 -492.18 0.267255 0.697216 0.645526 0.1605 
7 1 -2.79739 -265.344 -497.209 0.538105 0.447748 -0.00169966 0.714116 
8 1 248.282 -247.676 -497.602 0.154101 0.558093 0.70742 0.405392 
9 1 -492.205 -5.74206 -489.445 0.556493 0.708943 0.426446 0.0765451 
11 1 -4.75599 16.0862 -484.964 0.295073 0.296286 0.770579 0.480992 
13 1 -492.813 255.599 -490.339 0.609224 0.302258 0.726947 0.0950462 
14 1 -258.332 223.282 -497.2 0.381655 0.554788 0.735583 0.0739422 
15 1 1.0709 242.672 -485.525 -0.141305 0.587348 0.795688 0.0439975 
1 1 -487.989 490.612 -496.808 0.232764 0.764782 0.558222 0.222077 
19 1 6.00031 -489.447 -249.439 0.205882 0.747118 0.572981 0.266685 
22 1 -254.202 -233.438 -261.299 0.380064 0.190418 0.646721 0.63328 
23 1 3.7376 -227.51 -242.63 0.595833 0.703275 0.0646348 0.382373 
24 1 264.682 -265.149 -244.275 0.460667 0.777154 0.428597 0.0110606 
21 1 499.637 -239.596 -247.14 0.762419 0.240842 0.142191 0.583519 
25 1 -491.029 16.0896 -269.024 0.612335 0.279803 0.702208 0.231647 
26 1 -240.345 4.07041 -261.947 0.583874 0.53824 0.592827 0.133955 
27 1 -1.50856 6.60366 -269.877 0.0637029 0.122766 0.946519 0.291501 
28 1 235.745 3.9473 -266.857 0.159738 0.441016 0.0728268 0.880162 
30 1 -258.914 247.272 -240.293 0.443124 0.646871 0.46208 0.414346 
31 1 10.4494 246.258 -238.851 0.462285 0.0152475 0.096878 0.881291 
32 1 253.533 241.771 -264.342 0.322703 0.753007 0.573234 0.0156441 
29 1 495.681 240.101 -249.594 0.419207 0.227618 0.024528 0.878552 
17 1 -487.052 497.571 -262.761 0.556777 0.0876187 0.798002 0.21334 
18 1 -254.795 498.241 -255.273 0.479271 0.200044 0.581783 0.625947 
20 1 256.03 481.111 -250.082 0.634997 0.596792 0.392573 0.294117 
35 1 -18.7239 -478.401 -5.25991 0.528987 0.182147 0.406915 0.722091 
33 1 498.204 -491.294 -10.6045 0.29043 0.105234 0.510322 0.802588 
34 1 -245.016 491.067 13.5285 0.610813 0.77939 -0.0844286 0.111048 
4 1 252.888 -493.194 486.8 0.631079 0.774954 -0.0243245 0.0243633 
12 1 248.888 -5.7212 488.492 0.560985 0.749703 0.0604299 0.345817 
10 1 -261.532 17.8936 489.648 0.734348 0.670048 0.105677 -0.0245161 
16 1 235.193 231.195 483.784 0.349859 0.76645 0.207312 0.497167 
ITEM: TIMESTEP
110000
ITEM: NUMBER OF ATOMS
35
ITEM: BOX BOUNDS pp pp pp
-5.0000000000000000e+02 5.0000000000000000e+02
-5.0000000000000000e+02 5.0000000000000000e+02
-5.0000000000000000e+02 5.0000000000000000e+02
ITEM: ATOMS id type x y z c_q[1] c_q[2] c_q[3] c_q[4] 
2 1 -252.188 -495.831 -479.187 0.680472 0.121113 0.721523 -0.0411669 
5 1 -494.157 -261.48 -474.335 0.316394 0.334177 0.620521 0.63496 
6 1 -261.123 -232.153 -493.617 0.22452 0.713096 0.633897 0.198139 
7 1 -2.94693 -260.039 -493.251 0.569067 0.401119 -0.0523944 0.715906 
9 1 -492.067 -2.85338 -493.119 0.533534 0.754476 0.371443 0.0902087 
11 1 -2.31014 13.4125 -487.505 0.301514 0.26532 0.778537 0.48226 
13 1 -489.904 254.256 -489.975 0.58617 0.283658 0.752963 0.0948121 
14 1 -261.444 223.603 -496.692 0.421877 0.576244 0.690714 0.11348 
15 1 1.6995 245.389 -488.689 -0.10577 0.541001 0.834101 0.0201716 
19 1 7.9875 -490.414 -252.994 0.163692 0.721106 0.609179 0.286551 
21 1 -492.676 -237.581 -248.656 0.703735 0.292886 0.15044 0.629558 
22 1 -255.776 -234.1 -259.779 0.352196 0.173843 0.672696 0.627069 
23 1 2.29939 -228.598 -245.089 0.621377 0.703082 0.0896583 0.333958 
24 1 266.822 -264.457 -242.739 0.504104 0.751433 0.420508 0.0663376 
25 1 -489.991 18.0029 -267.942 0.633354 0.262025 0.682734 0.253141 
26 1 -241.495 3.52756 -264.602 0.580955 0.524538 0.612475 0.110567 
27 1 0.209156 6.45117 -272.104 0.0808953 0.198559 0.944681 0.24821 