ITEM: TIMESTEP
0
ITEM: NUMBER OF ATOMS
20
ITEM: BOX BOUNDS
-500.000000 500.000000
-500.000000 500.000000
-500.000000 500.000000
ITEM: ATOMS id type x y z c_q[1] c_q[2] c_q[3] c_q[4]
1 1 -500.000000 -500.000000 -500.000000 0.539666 0.583422 0.085569 0.600880
2 1 -166.666667 -500.000000 -500.000000 0.406588 0.436830 0.454784 0.661088
3 1 166.666667 -500.000000 -500.000000 0.522179 0.000085 0.824747 0.217074
4 1 -500.000000 -166.666667 -500.000000 0.415178 0.619032 0.665551 0.038325
5 1 -166.666667 -166.666667 -500.000000 0.526741 0.649432 0.082655 0.542171
6 1 166.666667 -166.666667 -500.000000 0.673446 0.580381 0.051850 0.454907
7 1 -500.000000 166.666667 -500.000000 0.453746 0.308882 0.660043 0.512883
8 1 -166.666667 166.666667 -500.000000 0.493470 0.187014 0.265963 0.806707
9 1 166.666667 166.666667 -500.000000 0.244442 0.674907 0.695506 0.031950
10 1 -500.000000 -500.000000 -166.666667 0.840400 0.475754 0.040024 0.256485
11 1 -166.666667 -500.000000 -166.666667 0.266903 0.521555 0.714099 0.383152
12 1 166.666667 -500.000000 -166.666667 0.464135 0.257112 0.539494 0.653773
13 1 -500.000000 -166.666667 -166.666667 0.416284 0.413280 0.561773 0.583368
14 1 -166.666667 -166.666667 -166.666667 0.509585 0.127739 0.231757 0.818715
15 1 166.666667 -166.666667 -166.666667 0.570760 0.101093 0.730313 0.361463
16 1 -500.000000 166.666667 -166.666667 0.674615 0.138182 0.610942 0.390577
17 1 -166.666667 166.666667 -166.666667 0.432935 0.588347 0.119188 0.672465
18 1 166.666667 166.666667 -166.666667 0.219684 0.233249 0.923628 0.210347
19 1 -500.000000 -500.000000 166.666667 0.420509 0.890129 0.166806 0.054938
20 1 -166.666667 -500.000000 166.666667 0.498152 0.608601 0.218622 0.577628
