LAMMPS data file

20 atoms
20 ellipsoids
0 bonds
0 angles
0 dihedrals

1 atom types
0 bond types
0 angle types
0 dihedral types

-500.000000 500.000000 xlo xhi
-500.000000 500.000000 ylo yhi
-500.000000 500.000000 zlo zhi

Masses

1 203166.000000

Atoms

1 1 -500.000000 -500.000000 -500.000000 1 1.000000 3 0.000000
2 1 -166.666667 -500.000000 -500.000000 1 1.000000 4 0.000000
3 1 166.666667 -500.000000 -500.000000 1 1.000000 5 0.000000
4 1 -500.000000 -166.666667 -500.000000 1 1.000000 6 0.000000
5 1 -166.666667 -166.666667 -500.000000 1 1.000000 7 0.000000
6 1 166.666667 -166.666667 -500.000000 1 1.000000 8 0.000000
7 1 -500.000000 166.666667 -500.000000 1 1.000000 9 0.000000
8 1 -166.666667 166.666667 -500.000000 1 1.000000 10 0.000000
9 1 166.666667 166.666667 -500.000000 1 1.000000 11 0.000000
10 1 -500.000000 -500.000000 -166.666667 1 1.000000 12 0.000000
11 1 -166.666667 -500.000000 -166.666667 1 1.000000 13 0.000000
12 1 166.666667 -500.000000 -166.666667 1 1.000000 14 0.000000
13 1 -500.000000 -166.666667 -166.666667 1 1.000000 15 0.000000
14 1 -166.666667 -166.666667 -166.666667 1 1.000000 16 0.000000
15 1 166.666667 -166.666667 -166.666667 1 1.000000 17 0.000000
16 1 -500.000000 166.666667 -166.666667 1 1.000000 18 0.000000
17 1 -166.666667 166.666667 -166.666667 1 1.000000 19 0.000000
18 1 166.666667 166.666667 -166.666667 1 1.000000 20 0.000000
19 1 -500.000000 -500.000000 166.666667 1 1.000000 21 0.000000
20 1 -166.666667 -500.000000 166.666667 1 1.000000 22 0.000000

Ellipsoids

1 55.000000 110.000000 110.000000 0.539666 0.583422 0.085569 0.600880
2 55.000000 110.000000 110.000000 0.406588 0.436830 0.454784 0.661088
3 55.000000 110.000000 110.000000 0.522179 0.000085 0.824747 0.217074
4 55.000000 110.000000 110.000000 0.415178 0.619032 0.665551 0.038325
5 55.000000 110.000000 110.000000 0.526741 0.649432 0.082655 0.542171
6 55.000000 110.000000 110.000000 0.673446 0.580381 0.051850 0.454907
7 55.000000 110.000000 110.000000 0.453746 0.308882 0.660043 0.512883
8 55.000000 110.000000 110.000000 0.493470 0.187014 0.265963 0.806707
9 55.000000 110.000000 110.000000 0.244442 0.674907 0.695506 0.031950
10 55.000000 110.000000 110.000000 0.840400 0.475754 0.040024 0.256485
11 55.000000 110.000000 110.000000 0.266903 0.521555 0.714099 0.383152
12 55.000000 110.000000 110.000000 0.464135 0.257112 0.539494 0.653773
13 55.000000 110.000000 110.000000 0.416284 0.413280 0.561773 0.583368
14 55.000000 110.000000 110.000000 0.509585 0.127739 0.231757 0.818715
15 55.000000 110.000000 110.000000 0.570760 0.101093 0.730313 0.361463
16 55.000000 110.000000 110.000000 0.674615 0.138182 0.610942 0.390577
17 55.000000 110.000000 110.000000 0.432935 0.588347 0.119188 0.672465
18 55.000000 110.000000 110.000000 0.219684 0.233249 0.923628 0.210347
19 55.000000 110.000000 110.000000 0.420509 0.890129 0.166806 0.054938
20 55.000000 110.000000 110.000000 0.498152 0.608601 0.218622 0.577628




