ITEM: TIMESTEP
0
ITEM: NUMBER OF ATOMS
30
ITEM: BOX BOUNDS pp pp pp
-5.0000000000000000e+02 5.0000000000000000e+02
-5.0000000000000000e+02 5.0000000000000000e+02
-5.0000000000000000e+02 5.0000000000000000e+02
ITEM: ATOMS id type x y z c_q[1] c_q[2] c_q[3] c_q[4] 
1 1 -500 -500 -500 0.747056 0.382623 0.537223 0.08306 
2 1 -250 -500 -500 0.666527 0.563741 0.450232 0.187695 
3 1 0 -500 -500 0.588056 0.48612 0.642998 0.066568 
4 1 250 -500 -500 0.520106 0.213189 0.445803 0.696635 
5 1 -500 -250 -500 0.565141 0.575083 0.420206 0.41632 
6 1 -250 -250 -500 0.635125 0.667394 0.29678 0.251242 
7 1 0 -250 -500 0.875947 0.304718 0.206122 0.312055 
8 1 250 -250 -500 0.507053 0.007444 0.284934 0.813422 
9 1 -500 0 -500 0.854504 0.439642 0.046882 0.272652 
10 1 -250 0 -500 0.544326 0.618438 0.528206 0.205529 
11 1 0 0 -500 0.547281 0.496457 0.137957 0.659532 
12 1 250 0 -500 0.127146 0.705571 0.234426 0.656543 
13 1 -500 250 -500 0.045681 0.594092 0.56905 0.566702 
14 1 -250 250 -500 0.72642 0.253222 0.409303 0.490575 
15 1 0 250 -500 0.352934 0.458749 0.263344 0.771775 
16 1 250 250 -500 0.666005 0.236321 0.190709 0.681337 
17 1 -500 -500 -250 0.841843 0.367105 0.388949 0.072477 
18 1 -250 -500 -250 0.381613 0.44222 0.035729 0.810886 
19 1 0 -500 -250 0.326788 0.246883 0.801146 0.436376 
20 1 250 -500 -250 0.336461 0.178248 0.442421 0.811964 
21 1 -500 -250 -250 0.2581 0.405287 0.162162 0.861876 
22 1 -250 -250 -250 0.863286 0.376675 0.334887 0.026537 
23 1 0 -250 -250 0.638441 0.63262 0.143236 0.414328 
24 1 250 -250 -250 0.581971 0.068543 0.810273 0.008293 
25 1 -500 0 -250 0.550797 0.082313 0.607343 0.566553 
26 1 -250 0 -250 0.535809 0.032686 0.640909 0.548705 
27 1 0 0 -250 0.523479 0.086869 0.591326 0.607253 
28 1 250 0 -250 0.710463 0.61792 0.257362 0.217216 
29 1 -500 250 -250 0.756963 0.015073 0.653198 0.010598 
30 1 -250 250 -250 0.514406 0.248466 0.796199 0.199295 
ITEM: TIMESTEP
10000
ITEM: NUMBER OF ATOMS
30
ITEM: BOX BOUNDS pp pp pp
-5.0000000000000000e+02 5.0000000000000000e+02
-5.0000000000000000e+02 5.0000000000000000e+02
-5.0000000000000000e+02 5.0000000000000000e+02
ITEM: ATOMS id type x y z c_q[1] c_q[2] c_q[3] c_q[4] 
2 1 -247.346 -498.619 -491.068 0.661758 0.551871 0.470791 0.189393 
5 1 -499.825 -246.446 -491.965 0.536291 0.566696 0.447853 0.436664 
8 1 250.924 -245.787 -497.227 0.49193 0.0143722 0.275262 0.825851 
9 1 -498.23 -1.97959 498.775 0.862749 0.450019 0.10447 0.205508 
12 1 248.511 -0.678688 -497.874 0.0746917 0.69172 0.232526 0.679615 
10 1 -249.75 5.99036 -495.533 0.555421 0.622605 0.523228 0.173502 
11 1 -0.653799 2.19027 -495.312 0.531319 0.519007 0.166366 0.648579 
15 1 -1.4771 250.472 -496.371 0.330255 0.50869 0.20196 0.769011 
13 1 495.653 251.834 -497.374 0.0594884 0.595574 0.568291 0.564622 
17 1 -495.166 -498.31 -251.972 0.834115 0.370241 0.405282 0.0540494 
18 1 -250.379 -499.328 -249.595 0.438354 0.429707 0.00945563 0.789372 
21 1 -498.728 -251.649 -244.812 0.250178 0.423428 0.159361 0.855993 
22 1 -251.238 -250.334 -247.156 0.842938 0.429884 0.321891 -0.0322682 
23 1 4.18211 -249.74 -250.128 0.654784 0.610537 0.134513 0.424745 
24 1 243.495 -243.479 -258.257 0.613826 0.0613873 0.786931 -0.013759 
28 1 250.727 -3.75717 -253.412 0.687235 0.607325 0.285452 0.278177 
25 1 494.507 -3.0981 -249.636 0.547407 0.0876834 0.589324 0.587669 
26 1 -245.873 0.914631 -252.086 0.491189 0.0552318 0.695365 0.52168 
27 1 -3.40877 2.38365 -252.056 0.555785 0.0685374 0.527077 0.639215 
30 1 -245.152 244.688 -253.496 0.494418 0.224525 0.804698 0.24 
29 1 498.06 250.979 -252.587 0.760145 0.0162629 0.64896 0.0276732 
19 1 -2.24447 498.821 -249.439 0.285641 0.283207 0.796863 0.450791 
20 1 249.734 497.516 -250.948 0.325882 0.125226 0.458065 0.817493 
3 1 -2.90838 -499.212 495.319 0.610084 0.425898 0.662579 0.0860074 
1 1 498.137 -496.701 496.085 0.761323 0.344984 0.541816 0.0883648 
6 1 -249.672 -245.06 497.849 0.63174 0.680736 0.277759 0.24567 
7 1 2.87776 -244.752 498.047 0.883897 0.321963 0.227759 0.251378 
14 1 -249.646 251.744 496.795 0.725389 0.245746 0.409681 0.495562 
16 1 244.818 249.256 498.462 0.668327 0.248217 0.203202 0.671146 
4 1 247.281 496.613 499.08 0.533574 0.158901 0.458532 0.692675 
ITEM: TIMESTEP
20000
ITEM: NUMBER OF ATOMS
30
ITEM: BOX BOUNDS pp pp pp
-5.0000000000000000e+02 5.0000000000000000e+02
-5.0000000000000000e+02 5.0000000000000000e+02
-5.0000000000000000e+02 5.0000000000000000e+02
ITEM: ATOMS id type x y z c_q[1] c_q[2] c_q[3] c_q[4] 
2 1 -251.061 -496.45 -488.9 0.701603 0.573287 0.384476 0.176841 
1 1 496.002 -496.808 -496.835 0.770889 0.321486 0.536021 0.122709 
8 1 244.172 -246.956 -497.606 0.461788 0.0298598 0.240571 0.853221 
5 1 498.298 -245.037 -495.109 0.50781 0.565147 0.476885 0.44195 
12 1 248.31 -4.13213 -495.729 0.0558142 0.671576 0.233901 0.700829 
9 1 499.409 0.0197262 -498.815 0.843169 0.473205 0.139599 0.213673 
10 1 -252.856 6.84525 499.917 0.580226 0.647962 0.482688 0.102446 
11 1 -2.09 0.163235 -496.846 0.535783 0.49965 0.163122 0.660816 
15 1 -0.266089 248.651 -496.935 0.316123 0.511987 0.237335 0.762632 
13 1 499.034 253.897 -491.848 0.0515963 0.579372 0.613397 0.534238 
4 1 245.875 497.539 -498.759 0.569471 0.139189 0.448003 0.674998 
17 1 -494.946 -496.831 -251.224 0.847966 0.355842 0.382527 0.0894621 
18 1 -254.641 -499.784 -247.42 0.44486 0.442357 0.000812463 0.778729 
19 1 -4.19556 -498.195 -253.163 0.269494 0.286292 0.794766 0.46234 
22 1 -251.206 -250.934 -241.71 0.863268 0.420685 0.274788 -0.0477843 
23 1 6.56009 -245.574 -250.315 0.669223 0.591774 0.141579 0.426497 
24 1 246.661 -244.148 -256.396 0.576869 0.0267874 0.816172 0.019173 
21 1 498.37 -250.735 -242.909 0.282264 0.403505 0.165854 0.854402 
28 1 254.349 -2.86995 -253.015 0.688419 0.585857 0.303087 0.301644 
25 1 496.52 -5.61661 -248.093 0.573567 0.108778 0.581376 0.566737 
26 1 -242.585 6.56201 -255.228 0.459586 0.0690127 0.721556 0.5132 
27 1 -1.77603 -1.75286 -258.063 0.522793 0.0464936 0.552889 0.647178 
30 1 -245.052 246.162 -253.56 0.455444 0.275049 0.80783 0.253633 
29 1 496.435 253.082 -251.074 0.716886 0.000464963 0.695613 0.0468705 
20 1 243.675 491.997 -252.944 0.348168 0.101633 0.43877 0.82215 
3 1 -4.53527 -496.906 495.351 0.607737 0.429954 0.667289 0.0228456 
6 1 -249.795 -245.914 495.935 0.64854 0.657551 0.271936 0.270319 
7 1 4.28678 -240.417 499.652 0.868068 0.340992 0.261547 0.248547 
14 1 -242.722 250.783 497.232 0.726431 0.257083 0.438815 0.46222 
16 1 247.549 253.105 499.115 0.65294 0.253853 0.209481 0.682162 
ITEM: TIMESTEP
30000
ITEM: NUMBER OF ATOMS
30
ITEM: BOX BOUNDS pp pp pp
-5.0000000000000000e+02 5.0000000000000000e+02
-5.0000000000000000e+02 5.0000000000000000e+02
-5.0000000000000000e+02 5.0000000000000000e+02
ITEM: ATOMS id type x y z c_q[1] c_q[2] c_q[3] c_q[4] 
2 1 -249.133 -495.579 -489.258 0.691306 0.588219 0.385123 0.166656 
1 1 492.496 -499.832 -496.181 0.791787 0.298206 0.521324 0.111211 
5 1 496.196 -244.845 -493.781 0.489652 0.605255 0.451291 0.436168 
11 1 -4.40532 -2.06184 499.4 0.532177 0.496062 0.193087 0.658352 
12 1 250.534 -0.285343 -496.977 0.129075 0.67483 0.202485 0.697814 
9 1 -496.038 4.40054 499.541 0.843583 0.472693 0.135178 0.216002 
10 1 -256.202 5.01328 -497.142 0.578511 0.621728 0.525074 0.0554719 
14 1 -246.602 247.252 -498.503 0.701209 0.26392 0.478473 0.457947 
15 1 2.96132 252.666 -492.018 0.310601 0.513441 0.201795 0.77407 
16 1 244.246 252.129 -495.213 0.658876 0.288237 0.251116 0.647875 
13 1 497.453 249.31 -495.709 0.0767217 0.564863 0.642434 0.512175 
4 1 246.477 496.408 -496.121 0.547736 0.169363 0.456986 0.680048 
17 1 -496.16 -495.771 -249.446 0.829823 0.384618 0.391313 0.101666 
19 1 -8.69818 -496.775 -255.261 0.268485 0.257253 0.799032 0.47253 
22 1 -253.318 -247.209 -240.593 0.86301 0.461508 0.201646 -0.039527 
23 1 4.25515 -243.666 -250.596 0.675529 0.556929 0.142197 0.461813 
24 1 248.811 -249.83 -260.743 0.537569 0.0322431 0.841933 0.0335975 
21 1 497.172 -254.623 -241.44 0.222475 0.352626 0.202974 0.88598 
27 1 2.06934 -8.07846 -255.66 0.512142 0.0587571 0.56355 0.6455 
28 1 250.186 -4.55266 -257.263 0.702939 0.571838 0.288167 0.309576 
25 1 497.888 -4.62284 -246.972 0.562346 0.134152 0.618757 0.531893 
26 1 -243.342 3.15113 -258.472 0.454776 0.0435245 0.755387 0.46976 
30 1 -242.318 241.366 -255.959 0.416663 0.293547 0.823928 0.247719 
29 1 491.775 255.503 -248.42 0.700275 -0.0185967 0.713631 0.0001746 
18 1 -251.542 496.472 -241.315 0.45545 0.46005 -0.0132069 0.762067 
20 1 241.868 491.415 -256.192 0.303815 0.029309 0.429104 0.850122 
3 1 -0.755466 -498.357 493.86 0.569565 0.442943 0.692385 0.00113034 
6 1 -249.309 -244.465 496.252 0.622296 0.677258 0.258454 0.295418 
7 1 6.37423 -244.467 -498.837 0.865629 0.315602 0.265309 0.284066 
8 1 246.848 -243.354 -499.486 0.46915 0.0159243 0.244313 0.848502 
ITEM: TIMESTEP
40000
ITEM: NUMBER OF ATOMS
30
ITEM: BOX BOUNDS pp pp pp
-5.0000000000000000e+02 5.0000000000000000e+02
-5.0000000000000000e+02 5.0000000000000000e+02
-5.0000000000000000e+02 5.0000000000000000e+02
ITEM: ATOMS id type x y z c_q[1] c_q[2] c_q[3] c_q[4] 
2 1 -246.901 -496.079 -484.979 0.658746 0.62938 0.384812 0.14783 
4 1 243.534 -498.413 -497.459 0.529298 0.191781 0.45004 0.693201 
1 1 492.89 -497.193 -498.681 0.785007 0.33628 0.505027 0.12501 
5 1 -497.722 -246.919 -489.974 0.489576 0.574508 0.467051 0.460563 
6 1 -247.529 -244.278 -498.768 0.616061 0.68534 0.266687 0.282235 
8 1 244.926 -244.096 -494.069 0.490124 -0.038817 0.232384 0.839208 
12 1 247.692 -1.06369 -494.215 0.122931 0.651453 0.210223 0.718543 
9 1 -489.436 7.26629 -499.515 0.850522 0.47545 0.1038 0.199462 
10 1 -250.179 10.9345 -499.41 0.563203 0.62503 0.537747 0.0544843 
14 1 -244.232 244.609 -497.959 0.676176 0.325231 0.511075 0.419301 
15 1 3.44468 248.843 -485.185 0.317661 0.503847 0.195089 0.779211 
13 1 499.366 249.865 -499.63 0.0790754 0.590026 0.645279 0.478781 
17 1 -498.791 -499.641 -244.796 0.808683 0.406032 0.406999 0.124582 
19 1 -12.8038 -498.293 -254.028 0.237734 0.252826 0.784985 0.513187 
22 1 -252.092 -245.517 -241.135 0.8704 0.45297 0.190333 -0.0315481 
23 1 5.17267 -245.732 -254.487 0.691106 0.534959 0.111366 0.473064 
24 1 252.709 -248.113 -266.308 0.512306 0.00433159 0.857796 0.0413473 
21 1 498.379 -252.574 -247.626 0.179485 0.372737 0.215429 0.884558 
27 1 -5.5136 -6.81597 -261.18 0.528787 0.0502168 0.551597 0.643119 
25 1 498.898 -5.50803 -242.712 0.56525 0.115292 0.590671 0.564189 
26 1 -244.538 6.00774 -260.473 0.447113 0.00666739 0.754581 0.480264 
28 1 250.275 1.98697 -255.843 0.728712 0.540279 0.267813 0.324582 
30 1 -240.625 235.627 -261.746 0.478906 0.323687 0.770844 0.267722 
29 1 490.686 253.725 -247.474 0.732763 0.0123081 0.68037 0.00177056 
18 1 -245.8 493.253 -236.38 0.512297 0.43045 -0.0169703 0.742951 
20 1 236.101 486.701 -257.477 0.334471 0.0574551 0.383571 0.858895 
3 1 -1.74414 -499.129 489.607 0.57215 0.435798 0.694447 -0.0216214 
7 1 11.164 -243.98 -498.181 0.895345 0.306871 0.213015 0.242513 
11 1 -4.99064 -4.26523 498.857 0.53045 0.47362 0.194433 0.675649 
16 1 244.299 254.269 496.848 0.669012 0.323011 0.227679 0.629484 
ITEM: TIMESTEP
50000
ITEM: NUMBER OF ATOMS
30
ITEM: BOX BOUNDS pp pp pp
-5.0000000000000000e+02 5.0000000000000000e+02
-5.0000000000000000e+02 5.0000000000000000e+02
-5.0000000000000000e+02 5.0000000000000000e+02
ITEM: ATOMS id type x y z c_q[1] c_q[2] c_q[3] c_q[4] 
2 1 -245.082 499.202 -483.817 0.678164 0.622888 0.35894 0.152533 
4 1 238.928 -497.518 -495.614 0.567753 0.187164 0.483666 0.639292 
1 1 497.294 -495.94 -496.571 0.770094 0.375113 0.503255 0.113928 
8 1 246.333 -247.317 -495 0.529192 -0.0734048 0.206689 0.819663 
5 1 495.45 -248.428 -487.094 0.487173 0.587681 0.443899 0.469306 
9 1 -489.661 5.22468 499.593 0.838711 0.507723 0.0724452 0.183121 
12 1 250.671 1.08791 -492.006 0.133717 0.666188 0.191294 0.708322 
14 1 -247.035 243.544 -498.276 0.628118 0.314641 0.565259 0.432378 
15 1 1.18086 248.863 -486.708 0.354542 0.550368 0.176645 0.734977 
17 1 -497.52 -498.855 -244.797 0.807826 0.433371 0.374078 0.14026 
19 1 -15.3288 -498.562 -250.303 0.268173 0.201364 0.774552 0.536288 
22 1 -253.392 -243.895 -245.95 0.851146 0.448111 0.254016 -0.101107 
23 1 -0.637025 -241.581 -252.569 0.683193 0.530308 0.120361 0.487374 
24 1 248.58 -241.697 -271.051 0.545539 -0.00704909 0.837037 0.041311 
21 1 492.72 -252.654 -246.694 0.181992 0.418167 0.217009 0.863089 
25 1 -497.839 -1.19772 -239.448 0.550625 0.12968 0.62109 0.542441 
27 1 -8.93086 -8.41219 -259.827 0.503209 0.0370434 0.590679 0.629688 
26 1 -246.41 5.09634 -260.153 0.431907 -0.0032474 0.739077 0.516925 
28 1 250.468 4.42867 -255.659 0.697863 0.56238 0.288184 0.337143 
30 1 -238.97 237.544 -263.354 0.49408 0.328214 0.769988 0.235116 
29 1 495.109 255.073 -245.097 0.758942 0.064049 0.647988 -0.00408918 
18 1 -248.953 488.739 -234.021 0.550953 0.418612 -0.0194034 0.721691 
20 1 237.699 482.991 -253.491 0.335831 0.0426045 0.383018 0.859476 
3 1 -0.0308625 -500.178 486.536 0.550427 0.442963 0.70768 0.00149541 
6 1 -248.89 -244.291 496.379 0.596654 0.689833 0.273966 0.305084 
7 1 13.4782 -244.48 498.922 0.902233 0.262319 0.222962 0.259717 
10 1 -248.005 11.1446 496.447 0.572388 0.609862 0.547588 0.0242241 
11 1 -5.51351 -0.268492 496.775 0.535526 0.479479 0.202054 0.665196 
16 1 243.568 252.749 498.094 0.691939 0.340308 0.242663 0.588665 
13 1 498.796 251.357 498.428 0.165567 0.582766 0.638285 0.474936 
ITEM: TIMESTEP
60000
ITEM: NUMBER OF ATOMS
30
ITEM: BOX BOUNDS pp pp pp
-5.0000000000000000e+02 5.0000000000000000e+02
-5.0000000000000000e+02 5.0000000000000000e+02
-5.0000000000000000e+02 5.0000000000000000e+02
ITEM: ATOMS id type x y z c_q[1] c_q[2] c_q[3] c_q[4] 
2 1 -247.04 -499.439 -487.282 0.674623 0.606997 0.377571 0.184064 
1 1 498.309 -496.12 -494.736 0.776332 0.356118 0.503696 0.129531 
7 1 8.7769 -238.425 -498.183 0.916483 0.237244 0.20339 0.249812 
8 1 250.685 -241.065 -498.239 0.489542 -0.107928 0.241533 0.83088 
5 1 492.109 -247.89 -492.329 0.494301 0.571284 0.460459 0.466131 
10 1 -250.186 9.055 -499.262 0.563499 0.616494 0.549891 0.00488192 
12 1 249.938 1.18392 -493.836 0.118006 0.664832 0.221646 0.703524 
15 1 -2.79008 249.977 -486.834 0.370849 0.578694 0.16569 0.707199 
13 1 494.655 254.676 -497.28 0.150168 0.55175 0.639087 0.514383 
19 1 -10.787 -497.362 -250.013 0.229161 0.210593 0.772896 0.552963 
22 1 -257.225 -242.141 -243.438 0.867185 0.433554 0.221149 -0.105427 
23 1 -2.78636 -242.188 -255.348 0.668685 0.494572 0.129781 0.539829 
24 1 250.223 -243.927 -273.677 0.573428 0.023726 0.818908 0.00272578 
21 1 492.754 -250.455 -249.758 0.161977 0.436666 0.232996 0.853698 
27 1 -9.54849 -7.51469 -262.678 0.450591 -0.0204102 0.597109 0.663335 
25 1 498.441 -5.78112 -236.109 0.506256 0.127552 0.624732 0.580642 
26 1 -242.615 7.74421 -263.407 0.443527 -0.041435 0.747259 0.493124 
28 1 253.978 2.06381 -255.644 0.67825 0.594459 0.246355 0.35483 
30 1 -241.862 233.512 -263.431 0.490921 0.292418 0.780412 0.25386 
29 1 489.459 253.11 -246.314 0.733515 0.0523585 0.677365 -0.0197954 
17 1 -495.597 498.706 -242.718 0.800275 0.451062 0.367993 0.143817 
18 1 -252.51 492.821 -235.359 0.54555 0.382278 -0.0203813 0.745535 
20 1 239.449 477.429 -250.139 0.3352 0.044902 0.35333 0.872229 
4 1 240.936 -498.999 497.771 0.548346 0.204149 0.500655 0.637953 
6 1 -244.125 -242.978 495.535 0.591862 0.702258 0.259678 0.298497 
9 1 -486.581 12.3825 498.711 0.808984 0.517755 0.138943 0.241184 
11 1 -4.45459 2.84475 495.356 0.531229 0.444418 0.212114 0.689417 
14 1 -248.987 243.65 496.46 0.60811 0.316645 0.608699 0.399279 
16 1 242.362 249.382 497.2 0.699192 0.267979 0.242543 0.616839 
3 1 3.00315 498.595 486.374 0.547214 0.497864 0.672687 -0.0134376 
ITEM: TIMESTEP
70000
ITEM: NUMBER OF ATOMS
30
ITEM: BOX BOUNDS pp pp pp
-5.0000000000000000e+02 5.0000000000000000e+02
-5.0000000000000000e+02 5.0000000000000000e+02
-5.0000000000000000e+02 5.0000000000000000e+02
ITEM: ATOMS id type x y z c_q[1] c_q[2] c_q[3] c_q[4] 
1 1 -496.618 -489.772 -496.577 0.786039 0.395502 0.441793 0.174754 
2 1 -243.838 -498.032 -485.052 0.674756 0.618326 0.360218 0.180611 
7 1 8.95798 -239.388 -498.001 0.903792 0.219976 0.242758 0.275388 
8 1 244.106 -242.314 -497.611 0.486629 -0.103831 0.234114 0.835225 
5 1 493.143 -247.79 -496.84 0.512901 0.582342 0.450979 0.44094 
11 1 1.85011 4.78107 -498.703 0.516103 0.478064 0.196006 0.683136 
12 1 255.061 -0.990377 -490.698 0.0726767 0.691316 0.247153 0.675067 
15 1 -3.82079 249.222 -484.146 0.356863 0.587598 0.182483 0.702906 
13 1 494.954 253.854 -492.475 0.133337 0.595973 0.606133 0.509549 
19 1 -7.17729 -499.597 -246.813 0.236478 0.224857 0.747637 0.578408 
22 1 -254.515 -238.727 -245.986 0.863339 0.423913 0.218537 -0.164878 
23 1 -2.13269 -240.487 -253.662 0.624419 0.554231 0.150053 0.529541 
24 1 253.633 -243.776 -270.286 0.527925 0.0730691 0.845923 0.0192436 
21 1 491.116 -244.808 -251.088 0.150272 0.458153 0.31148 0.818837 
27 1 -10.2907 -7.09908 -261.594 0.523276 -0.0380874 0.568202 0.633938 
25 1 498.77 -5.43883 -237.991 0.516922 0.116306 0.624389 0.573936 
26 1 -241.027 2.06562 -262.298 0.458371 -0.0188415 0.750363 0.475917 
28 1 255.889 3.18608 -248.727 0.672452 0.593099 0.25006 0.365392 
30 1 -237.556 235.357 -266.665 0.49104 0.299545 0.778903 0.249925 
29 1 492.136 251.757 -246.181 0.762782 0.0202639 0.646333 -0.00267781 
17 1 -496.917 499.053 -240.544 0.797303 0.443745 0.397731 0.0959568 
18 1 -253.946 489.063 -236.281 0.511907 0.386464 -0.00227089 0.767197 
20 1 237.595 470.981 -249.014 0.323209 0.101904 0.356548 0.870647 
4 1 243.514 -493.212 496.317 0.541279 0.15757 0.497046 0.659647 
6 1 -241.265 -242.714 -499.33 0.597824 0.653568 0.273642 0.374933 
9 1 -491.982 14.1546 495.841 0.807457 0.516738 0.0966203 0.267693 
10 1 -252.341 4.62634 498.368 0.584264 0.645555 0.491731 0.00974873 
14 1 -251.924 244.767 498.926 0.608384 0.277931 0.614427 0.418452 
16 1 243.335 253.149 498.383 0.672375 0.205511 0.238938 0.669765 
3 1 -1.58549 495.107 485.189 0.558079 0.509473 0.65394 -0.0367007 
ITEM: TIMESTEP
80000
ITEM: NUMBER OF ATOMS
30
ITEM: BOX BOUNDS pp pp pp
-5.0000000000000000e+02 5.0000000000000000e+02
-5.0000000000000000e+02 5.0000000000000000e+02
-5.0000000000000000e+02 5.0000000000000000e+02
ITEM: ATOMS id type x y z c_q[1] c_q[2] c_q[3] c_q[4] 
7 1 8.95838 -238.243 -497.966 0.911899 0.182445 0.235511 0.282291 
8 1 243.015 -241.449 -495.76 0.495541 -0.0723182 0.259891 0.825631 
5 1 491.283 -248.159 -498.915 0.502139 0.601712 0.465989 0.410673 
10 1 -254.807 1.45587 -499.563 0.613925 0.654918 0.439009 0.0380812 
11 1 5.07189 10.289 -498.762 0.527685 0.497191 0.170212 0.667366 
12 1 259.978 0.954311 -490.322 0.0854736 0.683455 0.21471 0.692447 
14 1 -252.581 243.891 -495.429 0.635228 0.273075 0.601483 0.400167 
15 1 -2.97817 247.536 -485.248 0.372389 0.568872 0.184811 0.709617 
13 1 496.053 254.585 -494.723 0.137469 0.585787 0.593077 0.534991 
2 1 -244.19 497.253 -484.911 0.677992 0.604617 0.367808 0.198702 
17 1 -497.732 -499.197 -239.402 0.798088 0.428784 0.403518 0.127959 
22 1 -254.153 -235.302 -252.537 0.861497 0.432602 0.2242 -0.142874 
23 1 3.18278 -241.121 -248.365 0.687342 0.543769 0.135915 0.461955 
24 1 253.114 -242.135 -274.895 0.58241 0.0772407 0.808839 0.0247422 
21 1 491.169 -243.193 -247.708 0.188641 0.385413 0.307947 0.849141 
26 1 -237.916 -1.3877 -260.771 0.457253 -0.0298765 0.748638 0.479133 
27 1 -12.7219 -9.50978 -265.199 0.510955 -0.0885614 0.556191 0.64941 
28 1 255.245 -0.341884 -249.512 0.677427 0.588637 0.302743 0.32085 
25 1 493.802 1.75257 -238.737 0.514596 0.148897 0.634531 0.557127 
30 1 -239.654 238.642 -265.181 0.508577 0.296351 0.755002 0.288959 
29 1 483.382 251.83 -244.842 0.761964 0.00323731 0.647559 -0.00818576 
18 1 -253.778 494.167 -237.355 0.481398 0.397053 0.0180391 0.781204 
19 1 -3.79964 497.149 -247.659 0.22561 0.208545 0.772753 0.555394 
20 1 233.06 468.521 -249.899 0.269994 0.118005 0.376576 0.878276 
1 1 -494.288 -489.303 -498.989 0.766598 0.405977 0.459752 0.190099 
4 1 238.941 -488.788 492.184 0.571498 0.136182 0.511222 0.627293 
6 1 -241.971 -238.232 -498.931 0.585247 0.670094 0.26738 0.370091 
9 1 -491.33 13.6154 492.748 0.808017 0.492827 0.101042 0.306629 
16 1 247.143 257.977 497.076 0.640716 0.186139 0.242371 0.704338 
3 1 2.793 498.838 483.431 0.566734 0.527271 0.632865 -0.016737 
ITEM: TIMESTEP
90000
ITEM: NUMBER OF ATOMS
30
ITEM: BOX BOUNDS pp pp pp
-5.0000000000000000e+02 5.0000000000000000e+02
-5.0000000000000000e+02 5.0000000000000000e+02
-5.0000000000000000e+02 5.0000000000000000e+02
ITEM: ATOMS id type x y z c_q[1] c_q[2] c_q[3] c_q[4] 
1 1 -493.527 -484.504 -498.466 0.771602 0.371124 0.457171 0.240609 
6 1 -241.385 -236.203 -494.907 0.572738 0.671306 0.298097 0.363948 
8 1 246.355 -239.02 -496.694 0.502428 -0.012654 0.2989 0.811212 
12 1 262.481 1.41545 -490.382 0.108068 0.661285 0.25349 0.697686 
14 1 -251.983 248.026 -491.901 0.633771 0.294397 0.583049 0.414389 
15 1 -4.83597 245.028 -491.847 0.403964 0.530979 0.226246 0.709709 
13 1 496.535 251.905 -494.607 0.105179 0.577548 0.611482 0.530533 
2 1 -247.932 491.187 -486.84 0.651654 0.590183 0.422553 0.220184 
22 1 -255.95 -238.725 -251.217 0.897669 0.382462 0.184033 -0.118514 
23 1 8.11003 -241.455 -245.947 0.689247 0.534934 0.141283 0.467786 
24 1 254.194 -242.067 -272.884 0.59465 0.0506625 0.801025 0.0467361 
21 1 491.553 -237.718 -239.705 0.167561 0.374363 0.360104 0.837914 
26 1 -232.393 -1.71236 -262.238 0.454709 -0.0497903 0.740519 0.492334 
27 1 -14.9202 -9.42834 -266.687 0.507252 -0.0283854 0.59572 0.622099 
28 1 256.238 1.18594 -245.372 0.679381 0.598255 0.281162 0.318559 
25 1 497.023 1.05474 -241.69 0.531383 0.130372 0.595545 0.588184 
30 1 -239.763 239.028 -260.992 0.528636 0.328567 0.725937 0.292579 
29 1 480.951 250.278 -246.141 0.791538 0.0378249 0.609823 0.012316 
17 1 -495.053 497.677 -237.958 0.789024 0.451739 0.405787 0.0933299 
18 1 -253.14 495.17 -234.202 0.505028 0.36828 -0.0134417 0.780471 
19 1 -2.99853 495.914 -252.243 0.25916 0.166386 0.761503 0.57032 
20 1 229.373 469.728 -250.861 0.27911 0.149913 0.375466 0.871004 
4 1 241.714 -491.169 490.837 0.599045 0.128575 0.505485 0.607535 
7 1 12.2174 -242.717 498.727 0.903925 0.184854 0.209858 0.323587 
5 1 491.742 -248.836 493.346 0.498823 0.578711 0.478288 0.433024 
9 1 -491.311 10.4066 493.007 0.815394 0.495233 0.100716 0.282369 
10 1 -257.681 2.21376 499.514 0.62083 0.653972 0.42328 0.087897 
11 1 13.1856 11.3964 -499.8 0.518819 0.542716 0.151696 0.642865 
16 1 249.34 255.544 494.224 0.660471 0.221167 0.2399 0.676248 
3 1 2.70798 498.388 485.315 0.570192 0.526235 0.630172 0.0289932 
ITEM: TIMESTEP
100000
ITEM: NUMBER OF ATOMS
30
ITEM: BOX BOUNDS pp pp pp
-5.0000000000000000e+02 5.0000000000000000e+02
-5.0000000000000000e+02 5.0000000000000000e+02
-5.0000000000000000e+02 5.0000000000000000e+02
ITEM: ATOMS id type x y z c_q[1] c_q[2] c_q[3] c_q[4] 
1 1 -493.465 -478.453 -495.402 0.771322 0.35979 0.458175 0.256298 
6 1 -236.067 -234.929 -494.984 0.583873 0.675819 0.321835 0.314298 
7 1 13.4167 -241.552 -498.259 0.898108 0.165896 0.240556 0.328655 
8 1 243.477 -238.136 -499.132 0.535254 -0.0164817 0.28611 0.794589 
11 1 14.8057 16.6564 -496.687 0.530045 0.558678 0.136286 0.623183 
12 1 258.288 5.35471 -493.971 0.100726 0.69042 0.228061 0.67909 
13 1 -499.933 254.512 -496.084 0.104138 0.559213 0.633787 0.524166 
14 1 -254.659 249.642 -491.802 0.635454 0.274373 0.584346 0.423625 
15 1 -3.56354 243.493 -491.343 0.371369 0.548911 0.258952 0.702656 
2 1 -254.199 485.755 -495.174 0.657176 0.582488 0.432185 0.205043 
22 1 -253.594 -237.932 -248.402 0.900555 0.372222 0.204766 -0.0923211 
23 1 6.3076 -253.928 -246.275 0.720928 0.531543 0.107413 0.431494 
24 1 256.939 -244.299 -274.235 0.608796 0.0800512 0.789254 0.00600818 
21 1 489.277 -240.362 -240.388 0.15695 0.334751 0.353551 0.85925 
26 1 -233.361 -1.12864 -262.299 0.405299 -0.0259619 0.757996 0.510392 
27 1 -11.7629 -9.71407 -268.591 0.507392 0.00324112 0.568992 0.64714 
28 1 257.755 -0.118909 -244.907 0.715318 0.574292 0.280513 0.282526 
25 1 498.634 3.61229 -243.796 0.486415 0.0940256 0.627958 0.60019 
30 1 -233.906 232.818 -256.978 0.513476 0.355588 0.716627 0.310395 
29 1 476.918 249.389 -245.377 0.772433 0.0276197 0.632925 0.0446014 
17 1 -497.504 498.64 -236.287 0.798629 0.432104 0.40624 0.102208 
18 1 -250.439 494.751 -235.944 0.4718 0.341438 0.0152137 0.812769 
19 1 0.254704 497.69 -253.599 0.257942 0.12637 0.736845 0.61201 
20 1 225.216 470.717 -249.301 0.249319 0.121067 0.363397 0.889452 
4 1 244.244 -497.094 494.555 0.61765 0.155438 0.494822 0.591184 
5 1 491.401 -250.671 494.47 0.473018 0.608128 0.452322 0.449265 
9 1 -487.013 8.59375 495.15 0.810491 0.501462 0.0952109 0.287358 
10 1 -258.118 2.28026 496.755 0.62147 0.663968 0.402053 0.106181 
16 1 251.795 257.483 496.933 0.637042 0.185344 0.231026 0.711655 
3 1 2.96579 494.676 488.105 0.545337 0.526163 0.65248 -0.00549041 
ITEM: TIMESTEP
110000
ITEM: NUMBER OF ATOMS
30
ITEM: BOX BOUNDS pp pp pp
-5.0000000000000000e+02 5.0000000000000000e+02
-5.0000000000000000e+02 5.0000000000000000e+02
-5.0000000000000000e+02 5.0000000000000000e+02
ITEM: ATOMS id type x y z c_q[1] c_q[2] c_q[3] c_q[4] 
1 1 -490.408 -478.918 -498.385 0.785524 0.332178 0.468816 0.229831 
6 1 -234.297 -233.975 -495.26 0.575266 0.659267 0.323858 0.359935 
11 1 18.4122 18.8147 -494.926 0.527748 0.586293 0.172648 0.589861 
12 1 264.274 8.24419 -496.547 0.0992226 0.661804 0.20353 0.714665 
14 1 -258.071 247.858 -484.764 0.625391 0.286729 0.562028 0.459126 
15 1 -3.03779 243.351 -497.391 0.348994 0.5445 0.295784 0.703019 
13 1 494.898 248.28 -494.422 0.0775635 0.56749 0.626681 0.528403 
2 1 -255.281 487.778 -489.94 0.680124 0.557414 0.425014 0.214672 
17 1 -496.161 -496.744 -235.312 0.774142 0.459312 0.418191 0.121872 
22 1 -255.266 -240.701 -247.772 0.907685 0.351673 0.209827 -0.0916854 
23 1 6.99373 -249.408 -245.436 0.703581 0.530643 0.113861 0.458724 
24 1 253.482 -243.861 -277.542 0.589229 0.109129 0.800492 -0.0106373 
21 1 494.449 -239.291 -243.009 0.210781 0.332214 0.34781 0.851019 
27 1 -12.0694 -10.2201 -270.505 0.52902 0.00841652 0.565088 0.633043 
26 1 -234.809 3.96582 -259.709 0.41117 -0.0396603 0.744058 0.525113 
28 1 258.973 1.20575 -245.316 0.732429 0.558994 0.291343 0.257278 
25 1 498.765 7.17633 -240.659 0.477129 0.0155946 0.614093 0.628486 
30 1 -234.508 232.397 -261.175 0.509942 0.348931 0.730015 0.292033 
29 1 477.502 248.53 -245.515 0.776597 0.0535381 0.625326 0.0547489 
18 1 -250.007 495.85 -231.994 0.457562 0.34205 -0.00450186 0.820743 
19 1 -1.34331 498.33 -254.642 0.237055 0.155137 0.742622 0.606836 
20 1 224.294 462.503 -245.603 0.206552 0.118946 0.357776 0.902876 
7 1 15.7577 -243.504 499.312 0.898869 0.171729 0.211886 0.342999 
8 1 245.232 -238.118 499.713 0.523109 -0.00837027 0.278098 0.805574 
5 1 494.049 -252.08 494.742 0.454037 0.571712 0.484437 0.481992 
9 1 -481.446 16.9898 499.361 0.799453 0.504066 0.0728318 0.318573 
10 1 -261.724 1.01881 495.29 0.617921 0.65945 0.408828 0.127123 
16 1 252.561 256.932 494.901 0.621463 0.221718 0.25315 0.707489 
3 1 1.77825 491.707 486.199 0.553424 0.55043 0.625095 0.00225967 
4 1 247.542 498.18 -499.928 0.64357 0.149215 0.485717 0.572391 
ITEM: TIMESTEP
120000
ITEM: NUMBER OF ATOMS
30
ITEM: BOX BOUNDS pp pp pp
-5.0000000000000000e+02 5.0000000000000000e+02
-5.0000000000000000e+02 5.0000000000000000e+02
-5.0000000000000000e+02 5.0000000000000000e+02
ITEM: ATOMS id type x y z c_q[1] c_q[2] c_q[3] c_q[4] 
1 1 -493.408 -482.566 -497.273 0.790862 0.358489 0.452649 0.20281 
6 1 -231.278 -232.447 498.466 0.579588 0.64926 0.332464 0.363327 
7 1 13.506 -244.388 -496.587 0.912284 0.16292 0.192053 0.322972 
8 1 246.752 -240.074 -499.081 0.524664 -0.0653862 0.273513 0.803519 
9 1 -479.439 15.2824 -497.9 0.802259 0.50885 0.0464774 0.308692 
10 1 -266.27 2.49608 -498.807 0.63447 0.644739 0.405383 0.131998 
11 1 16.9279 24.1581 -498.738 0.500972 0.57539 0.198592 0.615235 
12 1 266.551 6.64368 -489.921 0.108146 0.635653 0.225649 0.730295 
14 1 -260.917 252.988 -484.241 0.587649 0.298251 0.584268 0.473652 
13 1 -498.295 249.517 -488.188 0.0986961 0.577876 0.620919 0.520363 
2 1 -256.638 489.084 -489.968 0.701395 0.555344 0.394016 0.210688 
4 1 247.836 492.679 -499.206 0.654228 0.181873 0.469097 0.564673 
22 1 -250.265 -242.323 -244.533 0.919651 0.318694 0.226955 -0.0341695 
23 1 13.4661 -249.26 -247.35 0.732703 0.481875 0.0623969 0.476497 
24 1 253.278 -243.994 -278.642 0.563619 0.0369631 0.821672 -0.0763075 
21 1 493.496 -240.33 -243.681 0.274922 0.345876 0.372848 0.815948 
27 1 -15.8121 -10.9172 -271.156 0.565076 -0.00275765 0.530863 0.631559 
26 1 -231.069 5.06468 -257.66 0.400743 -0.0741735 0.737421 0.538622 
28 1 261.068 5.19602 -243.563 0.724869 0.594822 0.267705 0.221552 
25 1 496.457 12.2053 -238.222 0.435703 -0.0268257 0.614426 0.657209 
30 1 -237.951 231.28 -258.651 0.537592 0.292329 0.723922 0.318551 
29 1 476.288 247.795 -242.159 0.793108 0.032817 0.602184 0.0853077 
17 1 -491.586 -498.342 -241.709 0.759545 0.486965 0.412623 0.125293 
18 1 -248.033 493.505 -227.642 0.497609 0.356058 -0.0063818 0.790928 
19 1 -2.17047 497.742 -254.067 0.25372 0.148536 0.719391 0.629317 
20 1 223.044 465.857 -246.87 0.187923 0.0775292 0.379375 0.902634 
5 1 491.867 -260.633 495.546 0.461303 0.57204 0.465583 0.493156 
15 1 -4.4841 246.837 499.671 0.357702 0.515792 0.282057 0.72557 
16 1 251.43 253.465 496.83 0.656788 0.272257 0.237093 0.662036 
3 1 2.98659 489.245 481.403 0.508557 0.554685 0.656814 0.0478515 
ITEM: TIMESTEP
130000
ITEM: NUMBER OF ATOMS
30
ITEM: BOX BOUNDS pp pp pp
-5.0000000000000000e+02 5.0000000000000000e+02
-5.0000000000000000e+02 5.0000000000000000e+02
-5.0000000000000000e+02 5.0000000000000000e+02
ITEM: ATOMS id type x y z c_q[1] c_q[2] c_q[3] c_q[4] 
1 1 -497.654 -479.615 -498.243 0.785399 0.380285 0.427495 0.236179 
6 1 -230.701 -230.251 -499.541 0.592248 0.647786 0.32231 0.354586 
7 1 15.5585 -245.139 -492.613 0.895927 0.128206 0.215075 0.366907 
8 1 251.245 -240.732 -497.665 0.515435 -0.0807968 0.321792 0.790094 
10 1 -265.909 -1.20855 -496.758 0.622994 0.649631 0.388367 0.197556 