ITEM: TIMESTEP
0
ITEM: NUMBER OF ATOMS
60
ITEM: BOX BOUNDS
-500.000000 500.000000
-500.000000 500.000000
-500.000000 500.000000
ITEM: ATOMS id type x y z c_q[1] c_q[2] c_q[3] c_q[4]
1 1 -500.000000 -500.000000 -500.000000 0.678824 0.152281 0.565576 0.442869
2 1 -250.000000 -500.000000 -500.000000 0.432955 0.856615 0.010224 0.280459
3 1 0.000000 -500.000000 -500.000000 0.605385 0.596868 0.521246 0.074570
4 1 250.000000 -500.000000 -500.000000 0.821292 0.530629 0.183515 0.101170
5 1 -500.000000 -250.000000 -500.000000 0.625385 0.052314 0.483260 0.610424
6 1 -250.000000 -250.000000 -500.000000 0.168627 0.830656 0.366721 0.383525
7 1 0.000000 -250.000000 -500.000000 0.008585 0.824780 0.553954 0.113131
8 1 250.000000 -250.000000 -500.000000 0.652893 0.251648 0.689124 0.188447
9 1 -500.000000 0.000000 -500.000000 0.758518 0.551552 0.289881 0.190814
10 1 -250.000000 0.000000 -500.000000 0.343897 0.684663 0.070401 0.638761
11 1 0.000000 0.000000 -500.000000 0.475610 0.704997 0.419649 0.317284
12 1 250.000000 0.000000 -500.000000 0.564293 0.539702 0.322209 0.535235
13 1 -500.000000 250.000000 -500.000000 0.421241 0.656014 0.574068 0.250295
14 1 -250.000000 250.000000 -500.000000 0.695821 0.048712 0.671051 0.251299
15 1 0.000000 250.000000 -500.000000 0.405869 0.542639 0.619413 0.396409
16 1 250.000000 250.000000 -500.000000 0.227515 0.640967 0.681311 0.270581
17 1 -500.000000 -500.000000 -250.000000 0.106733 0.735002 0.058858 0.667020
18 1 -250.000000 -500.000000 -250.000000 0.172113 0.721886 0.605363 0.287737
19 1 0.000000 -500.000000 -250.000000 0.535442 0.473353 0.617056 0.329363
20 1 250.000000 -500.000000 -250.000000 0.570119 0.292197 0.761362 0.099567
21 1 -500.000000 -250.000000 -250.000000 0.532121 0.515937 0.024634 0.670857
22 1 -250.000000 -250.000000 -250.000000 0.551851 0.552181 0.493330 0.383643
23 1 0.000000 -250.000000 -250.000000 0.247345 0.598526 0.708524 0.280323
24 1 250.000000 -250.000000 -250.000000 0.743698 0.623593 0.093993 0.221833
25 1 -500.000000 0.000000 -250.000000 0.114352 0.643205 0.547372 0.523062
26 1 -250.000000 0.000000 -250.000000 0.538641 0.455992 0.560710 0.433061
27 1 0.000000 0.000000 -250.000000 0.060471 0.338317 0.899856 0.268596
28 1 250.000000 0.000000 -250.000000 0.609083 0.396589 0.663347 0.178062
29 1 -500.000000 250.000000 -250.000000 0.351360 0.039634 0.075454 0.932353
30 1 -250.000000 250.000000 -250.000000 0.078535 0.636524 0.730018 0.236100
31 1 0.000000 250.000000 -250.000000 0.585765 0.424592 0.584937 0.366675
32 1 250.000000 250.000000 -250.000000 0.618667 0.543230 0.211916 0.526540
33 1 -500.000000 -500.000000 0.000000 0.274980 0.917774 0.134703 0.252847
34 1 -250.000000 -500.000000 0.000000 0.524403 0.602310 0.163312 0.579270
35 1 0.000000 -500.000000 0.000000 0.421141 0.759779 0.014154 0.495153
36 1 250.000000 -500.000000 0.000000 0.273729 0.246802 0.653340 0.661293
37 1 -500.000000 -250.000000 0.000000 0.128799 0.843437 0.472560 0.220707
38 1 -250.000000 -250.000000 0.000000 0.038295 0.011188 0.255995 0.965854
39 1 0.000000 -250.000000 0.000000 0.604201 0.539933 0.550118 0.201951
40 1 250.000000 -250.000000 0.000000 0.532595 0.444123 0.432141 0.576500
41 1 -500.000000 0.000000 0.000000 0.387982 0.678549 0.265145 0.564570
42 1 -250.000000 0.000000 0.000000 0.056974 0.955941 0.048312 0.283896
43 1 0.000000 0.000000 0.000000 0.581524 0.613727 0.533877 0.012013
44 1 250.000000 0.000000 0.000000 0.406897 0.274338 0.766807 0.413740
45 1 -500.000000 250.000000 0.000000 0.567086 0.817662 0.090389 0.040887
46 1 -250.000000 250.000000 0.000000 0.676318 0.084429 0.021032 0.731453
47 1 0.000000 250.000000 0.000000 0.401301 0.649655 0.070848 0.641784
48 1 250.000000 250.000000 0.000000 0.317138 0.516673 0.146741 0.781626
49 1 -500.000000 -500.000000 250.000000 0.015597 0.717452 0.349898 0.602154
50 1 -250.000000 -500.000000 250.000000 0.186051 0.148678 0.931862 0.273701
51 1 0.000000 -500.000000 250.000000 0.254615 0.333456 0.220989 0.880422
52 1 250.000000 -500.000000 250.000000 0.018613 0.539917 0.282396 0.792714
53 1 -500.000000 -250.000000 250.000000 0.097390 0.294885 0.938842 0.148777
54 1 -250.000000 -250.000000 250.000000 0.424970 0.277283 0.561643 0.653507
55 1 0.000000 -250.000000 250.000000 0.538943 0.544432 0.529130 0.364905
56 1 250.000000 -250.000000 250.000000 0.117458 0.669626 0.251505 0.688876
57 1 -500.000000 0.000000 250.000000 0.046924 0.611352 0.789183 0.035170
58 1 -250.000000 0.000000 250.000000 0.606117 0.205788 0.672562 0.371395
59 1 0.000000 0.000000 250.000000 0.120292 0.184496 0.295429 0.929630
60 1 250.000000 0.000000 250.000000 0.371277 0.585817 0.526038 0.492196
