ITEM: TIMESTEP
0
ITEM: NUMBER OF ATOMS
15
ITEM: BOX BOUNDS
-500.000000 500.000000
-500.000000 500.000000
-500.000000 500.000000
ITEM: ATOMS id type x y z c_q[1] c_q[2] c_q[3] c_q[4]
1 1 -500.000000 -500.000000 -500.000000 0.037911 0.653521 0.684817 0.320154
2 1 -166.666667 -500.000000 -500.000000 0.180787 0.303360 0.812040 0.464629
3 1 166.666667 -500.000000 -500.000000 0.074807 0.705641 0.612636 0.348068
4 1 -500.000000 -166.666667 -500.000000 0.237050 0.662204 0.105941 0.702901
5 1 -166.666667 -166.666667 -500.000000 0.526372 0.228384 0.477953 0.665082
6 1 166.666667 -166.666667 -500.000000 0.465899 0.188242 0.464370 0.729290
7 1 -500.000000 166.666667 -500.000000 0.557946 0.788669 0.250701 0.062017
8 1 -166.666667 166.666667 -500.000000 0.314763 0.270145 0.403490 0.815562
9 1 166.666667 166.666667 -500.000000 0.009748 0.431811 0.636435 0.639058
10 1 -500.000000 -500.000000 -166.666667 0.374472 0.078589 0.654964 0.651627
11 1 -166.666667 -500.000000 -166.666667 0.589762 0.514296 0.380924 0.492521
12 1 166.666667 -500.000000 -166.666667 0.221157 0.184929 0.604544 0.742575
13 1 -500.000000 -166.666667 -166.666667 0.314896 0.378879 0.371736 0.786831
14 1 -166.666667 -166.666667 -166.666667 0.197078 0.528662 0.756023 0.331822
15 1 166.666667 -166.666667 -166.666667 0.600220 0.060794 0.062229 0.795090
