LAMMPS data file

15 atoms
15 ellipsoids
0 bonds
0 angles
0 dihedrals

1 atom types
0 bond types
0 angle types
0 dihedral types

-500.000000 500.000000 xlo xhi
-500.000000 500.000000 ylo yhi
-500.000000 500.000000 zlo zhi

Masses

1 203166.000000

Atoms

1 1 -500.000000 -500.000000 -500.000000 1 1.000000 3 0.000000
2 1 -166.666667 -500.000000 -500.000000 1 1.000000 4 0.000000
3 1 166.666667 -500.000000 -500.000000 1 1.000000 5 0.000000
4 1 -500.000000 -166.666667 -500.000000 1 1.000000 6 0.000000
5 1 -166.666667 -166.666667 -500.000000 1 1.000000 7 0.000000
6 1 166.666667 -166.666667 -500.000000 1 1.000000 8 0.000000
7 1 -500.000000 166.666667 -500.000000 1 1.000000 9 0.000000
8 1 -166.666667 166.666667 -500.000000 1 1.000000 10 0.000000
9 1 166.666667 166.666667 -500.000000 1 1.000000 11 0.000000
10 1 -500.000000 -500.000000 -166.666667 1 1.000000 12 0.000000
11 1 -166.666667 -500.000000 -166.666667 1 1.000000 13 0.000000
12 1 166.666667 -500.000000 -166.666667 1 1.000000 14 0.000000
13 1 -500.000000 -166.666667 -166.666667 1 1.000000 15 0.000000
14 1 -166.666667 -166.666667 -166.666667 1 1.000000 16 0.000000
15 1 166.666667 -166.666667 -166.666667 1 1.000000 17 0.000000

Ellipsoids

1 55.000000 110.000000 110.000000 0.037911 0.653521 0.684817 0.320154
2 55.000000 110.000000 110.000000 0.180787 0.303360 0.812040 0.464629
3 55.000000 110.000000 110.000000 0.074807 0.705641 0.612636 0.348068
4 55.000000 110.000000 110.000000 0.237050 0.662204 0.105941 0.702901
5 55.000000 110.000000 110.000000 0.526372 0.228384 0.477953 0.665082
6 55.000000 110.000000 110.000000 0.465899 0.188242 0.464370 0.729290
7 55.000000 110.000000 110.000000 0.557946 0.788669 0.250701 0.062017
8 55.000000 110.000000 110.000000 0.314763 0.270145 0.403490 0.815562
9 55.000000 110.000000 110.000000 0.009748 0.431811 0.636435 0.639058
10 55.000000 110.000000 110.000000 0.374472 0.078589 0.654964 0.651627
11 55.000000 110.000000 110.000000 0.589762 0.514296 0.380924 0.492521
12 55.000000 110.000000 110.000000 0.221157 0.184929 0.604544 0.742575
13 55.000000 110.000000 110.000000 0.314896 0.378879 0.371736 0.786831
14 55.000000 110.000000 110.000000 0.197078 0.528662 0.756023 0.331822
15 55.000000 110.000000 110.000000 0.600220 0.060794 0.062229 0.795090




