ITEM: TIMESTEP
0
ITEM: NUMBER OF ATOMS
15
ITEM: BOX BOUNDS pp pp pp
-5.0000000000000000e+02 5.0000000000000000e+02
-5.0000000000000000e+02 5.0000000000000000e+02
-5.0000000000000000e+02 5.0000000000000000e+02
ITEM: ATOMS id type x y z c_q[1] c_q[2] c_q[3] c_q[4] 
1 1 -500 -500 -500 0.037911 0.653521 0.684817 0.320154 
2 1 -166.667 -500 -500 0.180787 0.30336 0.81204 0.464629 
3 1 166.667 -500 -500 0.074807 0.705641 0.612636 0.348068 
4 1 -500 -166.667 -500 0.23705 0.662204 0.105941 0.702901 
5 1 -166.667 -166.667 -500 0.526372 0.228384 0.477953 0.665082 
6 1 166.667 -166.667 -500 0.465899 0.188242 0.46437 0.72929 
7 1 -500 166.667 -500 0.557946 0.788669 0.250701 0.062017 
8 1 -166.667 166.667 -500 0.314763 0.270145 0.40349 0.815562 
9 1 166.667 166.667 -500 0.009748 0.431811 0.636435 0.639058 
10 1 -500 -500 -166.667 0.374472 0.078589 0.654964 0.651627 
11 1 -166.667 -500 -166.667 0.589762 0.514296 0.380924 0.492521 
12 1 166.667 -500 -166.667 0.221157 0.184929 0.604544 0.742575 
13 1 -500 -166.667 -166.667 0.314896 0.378879 0.371736 0.786831 
14 1 -166.667 -166.667 -166.667 0.197078 0.528662 0.756023 0.331822 
15 1 166.667 -166.667 -166.667 0.60022 0.060794 0.062229 0.79509 
ITEM: TIMESTEP
10000
ITEM: NUMBER OF ATOMS
15
ITEM: BOX BOUNDS pp pp pp
-5.0000000000000000e+02 5.0000000000000000e+02
-5.0000000000000000e+02 5.0000000000000000e+02
-5.0000000000000000e+02 5.0000000000000000e+02
ITEM: ATOMS id type x y z c_q[1] c_q[2] c_q[3] c_q[4] 
6 1 163.555 -167.808 -497.013 0.49217 0.174529 0.445502 0.727211 
4 1 498.705 -168.736 -499.441 0.278451 0.668399 0.0710338 0.686048 
9 1 161.514 173.776 -500.099 -0.00816896 0.385772 0.644534 0.660067 
2 1 -165.347 498.018 -497.316 0.16138 0.299878 0.835261 0.431704 
1 1 498.055 499.219 -496.718 0.0365353 0.647206 0.686038 0.330367 
10 1 -498.826 -498.99 -173.302 0.351058 0.0877906 0.646194 0.671926 
14 1 -169.899 -165.978 -168.808 0.210326 0.519431 0.750745 0.349766 
13 1 499.205 -169.54 -165.832 0.311492 0.359271 0.39716 0.78496 
15 1 169.774 -162.104 -170.043 0.604459 0.0829655 0.148439 0.778275 
12 1 168.189 499.715 -166.011 0.217995 0.158902 0.567126 0.778201 
11 1 -165.183 491.509 -159.635 0.578388 0.4988 0.387543 0.516213 
3 1 169.748 -496.375 -498.952 0.0661113 0.69808 0.631433 0.331067 
5 1 -171.627 -168.096 490.706 0.516745 0.201799 0.506623 0.659989 
8 1 -167.775 168.132 496.243 0.303541 0.303036 0.396596 0.81163 
7 1 491.926 166.436 499.343 0.563552 0.790627 0.230267 0.0655361 
ITEM: TIMESTEP
20000
ITEM: NUMBER OF ATOMS
15
ITEM: BOX BOUNDS pp pp pp
-5.0000000000000000e+02 5.0000000000000000e+02
-5.0000000000000000e+02 5.0000000000000000e+02
-5.0000000000000000e+02 5.0000000000000000e+02
ITEM: ATOMS id type x y z c_q[1] c_q[2] c_q[3] c_q[4] 
1 1 495.374 -495.102 -492.994 -0.0171283 0.677451 0.674423 0.293121 
6 1 159.869 -172.254 -493.94 0.511594 0.149327 0.436368 0.724952 
4 1 498.119 -164.205 -495.148 0.219494 0.696839 0.0393451 0.681681 
2 1 -168.013 496.232 -495.771 0.145248 0.302668 0.837983 0.430208 
15 1 169.191 -161.726 -172.504 0.618482 0.0689786 0.146466 0.76894 
12 1 170.633 497.812 -167.421 0.270981 0.152173 0.543658 0.779647 
10 1 499.899 498.079 -172.075 0.316963 0.0688761 0.650016 0.687219 
13 1 499.665 -172.684 -162.039 0.295884 0.396366 0.426126 0.757471 
14 1 -165.635 -166.114 -165.925 0.185153 0.530418 0.753483 0.341524 
11 1 -161.944 486.829 -157.768 0.557498 0.487489 0.434055 0.512979 
3 1 167.007 -497.753 499.475 0.0224617 0.693567 0.658801 0.290587 
5 1 -172.793 -171.829 488.014 0.526513 0.203206 0.475892 0.674551 
7 1 486.006 160.995 -500.106 0.55696 0.799395 0.220531 0.0461449 
8 1 -162.917 166.527 499.959 0.31499 0.317586 0.39624 0.801819 
9 1 162.681 172.907 499.023 -0.00305647 0.353277 0.664793 0.658206 
ITEM: TIMESTEP
30000
ITEM: NUMBER OF ATOMS
15
ITEM: BOX BOUNDS pp pp pp
-5.0000000000000000e+02 5.0000000000000000e+02
-5.0000000000000000e+02 5.0000000000000000e+02
-5.0000000000000000e+02 5.0000000000000000e+02
ITEM: ATOMS id type x y z c_q[1] c_q[2] c_q[3] c_q[4] 
1 1 491.795 -496.543 -491.865 -0.00623815 0.673777 0.685669 0.275399 
6 1 159.235 -176.498 500.059 0.544385 0.179053 0.416992 0.705481 
4 1 495.202 -161.717 -496.919 0.197157 0.684911 0.0454549 0.699971 
2 1 -166.705 492.987 -494.063 0.159119 0.25697 0.857613 0.416109 
15 1 172.585 -164.346 -171.984 0.592211 0.043032 0.146803 0.791128 
10 1 499.446 -499.592 -176.158 0.31768 0.00482696 0.67044 0.670497 
13 1 498.697 -168.374 -162.164 0.324265 0.421336 0.423612 0.733404 
14 1 -158.555 -164.016 -165.701 0.214827 0.523631 0.754189 0.332956 
11 1 -164.068 486.704 -155.763 0.53927 0.502821 0.444993 0.508272 
12 1 171.207 497.535 -162.4 0.241358 0.151397 0.543096 0.789855 
5 1 -169.153 -169.247 492.066 0.481939 0.210261 0.515339 0.67672 
7 1 480.135 163.714 498.732 0.561113 0.796775 0.223701 0.0161058 
8 1 -159.739 168.041 498.98 0.31856 0.303925 0.364868 0.820378 
9 1 163.162 172.635 -499.931 -0.0589916 0.359877 0.682173 0.633757 
3 1 168.892 -499.68 497.304 0.0708924 0.700571 0.633792 0.320128 
ITEM: TIMESTEP
40000
ITEM: NUMBER OF ATOMS
15
ITEM: BOX BOUNDS pp pp pp
-5.0000000000000000e+02 5.0000000000000000e+02
-5.0000000000000000e+02 5.0000000000000000e+02
-5.0000000000000000e+02 5.0000000000000000e+02
ITEM: ATOMS id type x y z c_q[1] c_q[2] c_q[3] c_q[4] 
1 1 492.884 -496.352 -494.87 -0.00444965 0.651735 0.691309 0.311952 
6 1 166.39 -173.189 -497.358 0.511099 0.249609 0.435652 0.697625 
4 1 498.089 -158.306 -500.329 0.213647 0.676756 0.0432634 0.703196 
8 1 -161.559 171.995 -498.804 0.293464 0.326445 0.365846 0.820651 
2 1 -170.453 489.293 -490.695 0.121874 0.25259 0.861135 0.424017 
14 1 -153.624 -170.923 -168.051 0.174524 0.52625 0.754154 0.351928 
15 1 171.848 -164.685 -172.179 0.602498 0.056416 0.143639 0.783058 
10 1 -494.711 500.429 -175.097 0.302748 -0.0378034 0.69711 0.648808 
13 1 -498.979 -159.815 -162.625 0.320341 0.442701 0.387415 0.742501 
11 1 -158.67 484.922 -159.453 0.530735 0.549156 0.416395 0.493319 
12 1 167.777 500.254 -163.703 0.254164 0.119714 0.556547 0.781873 
3 1 171.139 -495.084 499.587 0.0406227 0.700316 0.648982 0.2945 
5 1 -165.441 -163.808 497.035 0.517346 0.214359 0.495521 0.663974 
7 1 477.177 162.896 499.721 0.568175 0.792524 0.220658 0.0198442 
9 1 161.683 175.46 498.018 -0.115812 0.355559 0.705444 0.602091 
ITEM: TIMESTEP
50000
ITEM: NUMBER OF ATOMS
15
ITEM: BOX BOUNDS pp pp pp
-5.0000000000000000e+02 5.0000000000000000e+02
-5.0000000000000000e+02 5.0000000000000000e+02
-5.0000000000000000e+02 5.0000000000000000e+02
ITEM: ATOMS id type x y z c_q[1] c_q[2] c_q[3] c_q[4] 
1 1 490.309 -496.347 -494.081 -0.0225327 0.593838 0.734905 0.326746 
4 1 498.485 -161.906 -495.023 0.165376 0.688003 0.000495858 0.706613 
2 1 -168.943 497.962 -488.767 0.0911258 0.262841 0.859482 0.428838 
10 1 -497.624 -494.849 -176.091 0.275648 -0.0267961 0.709716 0.647768 
15 1 165.649 -162.778 -171.608 0.618162 0.0400844 0.0842527 0.780493 
12 1 168.648 -493.527 -163.115 0.216661 0.0973155 0.551065 0.799947 
14 1 -153.56 -170.76 -168.091 0.168644 0.528703 0.7733 0.306658 
13 1 -495.129 -160.429 -161.814 0.29586 0.442993 0.378976 0.756704 
11 1 -158.04 482.745 -155.973 0.534561 0.55333 0.433111 0.469559 
3 1 168.627 -493.018 491.781 -0.0263528 0.730886 0.623729 0.275815 
6 1 166.008 -167.097 499.521 0.547235 0.193759 0.416097 0.699896 
5 1 -170.999 -162.196 497.243 0.52863 0.217817 0.498687 0.651474 
7 1 475.205 159.568 495.962 0.595259 0.771304 0.22502 0.0110815 
8 1 -159.087 171.149 493.884 0.260972 0.282026 0.352002 0.853492 
9 1 166.925 178.221 499.031 -0.101147 0.433063 0.651467 0.614667 
ITEM: TIMESTEP
60000
ITEM: NUMBER OF ATOMS
15
ITEM: BOX BOUNDS pp pp pp
-5.0000000000000000e+02 5.0000000000000000e+02
-5.0000000000000000e+02 5.0000000000000000e+02
-5.0000000000000000e+02 5.0000000000000000e+02
ITEM: ATOMS id type x y z c_q[1] c_q[2] c_q[3] c_q[4] 
1 1 488.29 -495.591 -497.575 -0.0528919 0.586168 0.73442 0.337988 
5 1 -167.023 -158.181 -498.831 0.480788 0.276752 0.505749 0.660658 
6 1 172.369 -165.667 -497.129 0.584755 0.149046 0.394879 0.692761 
4 1 499.252 -160.676 -498.293 0.165572 0.715448 -0.00409298 0.678751 
9 1 168.835 183.091 -498.557 -0.0992616 0.40038 0.66019 0.627688 
2 1 -173.188 498.658 -490.052 0.110884 0.264524 0.857478 0.427157 
10 1 -496.748 -492.763 -172.888 0.270385 -0.0177544 0.702915 0.657638 
12 1 165.165 -491.626 -167.859 0.199066 0.0877617 0.552423 0.804674 
15 1 167.899 -166.2 -172.317 0.648762 0.0607342 0.0467792 0.75712 
13 1 -493.871 -155.26 -161.344 0.290038 0.459954 0.374919 0.750837 
14 1 -154.59 -164.288 -165.698 0.152489 0.51968 0.774641 0.326513 
11 1 -154.639 482.923 -156.329 0.553083 0.55933 0.43874 0.434462 
3 1 170.001 -499.695 487.966 -0.0305224 0.71173 0.639732 0.288533 
7 1 471.37 160.847 491.953 0.613416 0.764155 0.19917 -0.0109145 
8 1 -159.902 168.897 499.265 0.269896 0.288245 0.358906 0.845729 
ITEM: TIMESTEP
70000
ITEM: NUMBER OF ATOMS
15
ITEM: BOX BOUNDS pp pp pp
-5.0000000000000000e+02 5.0000000000000000e+02
-5.0000000000000000e+02 5.0000000000000000e+02
-5.0000000000000000e+02 5.0000000000000000e+02
ITEM: ATOMS id type x y z c_q[1] c_q[2] c_q[3] c_q[4] 
2 1 -171.648 -498.442 -488.693 0.104913 0.231223 0.855583 0.451117 
4 1 -498.771 -157.606 -498.604 0.176968 0.742962 0.000720865 0.645514 
5 1 -174.886 -157.005 -496.414 0.523092 0.267988 0.526949 0.613907 
6 1 175.425 -167.46 -492.782 0.611399 0.157874 0.406924 0.66006 
8 1 -163.201 169.092 -497.984 0.277114 0.302385 0.442294 0.797589 
1 1 490.442 495.795 499.891 -0.0430484 0.569812 0.760771 0.307714 
10 1 -493.111 -498.105 -177.1 0.231062 -0.0483718 0.665983 0.707628 
12 1 164.894 -495.451 -168.618 0.167799 0.0748562 0.580792 0.793045 
14 1 -152.313 -162.683 -168.846 0.170676 0.507092 0.766793 0.354621 
15 1 161.024 -165.495 -174.078 0.658894 0.142723 0.0395055 0.737515 
13 1 -496.216 -151.323 -159.529 0.369088 0.456066 0.341721 0.73417 
11 1 -155.172 478.183 -151.793 0.547477 0.568692 0.420856 0.44692 
3 1 167.861 -497.344 493.508 -0.0158895 0.733654 0.603897 0.311138 
7 1 470.969 160.776 492.463 0.558199 0.809905 0.180163 0.00282479 
9 1 168.028 184.105 497.201 -0.119281 0.397618 0.69506 0.586996 
ITEM: TIMESTEP
80000
ITEM: NUMBER OF ATOMS
15
ITEM: BOX BOUNDS pp pp pp
-5.0000000000000000e+02 5.0000000000000000e+02
-5.0000000000000000e+02 5.0000000000000000e+02
-5.0000000000000000e+02 5.0000000000000000e+02
ITEM: ATOMS id type x y z c_q[1] c_q[2] c_q[3] c_q[4] 
6 1 174.552 -170.564 -485.878 0.632927 0.126414 0.40121 0.649964 
4 1 496.879 -152.679 -496.197 0.198756 0.743242 0.0196476 0.638515 
8 1 -164.414 166.71 499.249 0.322473 0.282284 0.422007 0.798898 
2 1 -168.543 497.45 -484.064 0.144433 0.179992 0.870579 0.43455 
1 1 487.701 496.036 -498.841 -0.0916799 0.546832 0.796385 0.241538 
10 1 -494.371 -499.097 -175.565 0.260557 -0.0439753 0.656564 0.70647 
12 1 168.198 -499.569 -169.964 0.179353 0.0845601 0.596647 0.777621 
15 1 161.303 -167.858 -174.526 0.664907 0.133506 0.0602805 0.732421 
13 1 -494.596 -148.154 -159.205 0.381886 0.443906 0.258211 0.768399 
14 1 -152.822 -159.479 -160.692 0.209772 0.529024 0.757781 0.319213 
11 1 -148.845 477.263 -148.756 0.511426 0.577487 0.441307 0.458476 
3 1 166.479 -496.948 495.566 -0.0154911 0.715523 0.609692 0.34068 
5 1 -178.063 -159.943 497.424 0.533038 0.270687 0.482391 0.640232 
7 1 476.7 155.595 487.632 0.510137 0.840557 0.166902 0.0732594 
9 1 167.155 182.483 495.731 -0.11662 0.407572 0.695591 0.580034 
ITEM: TIMESTEP
90000
ITEM: NUMBER OF ATOMS
15
ITEM: BOX BOUNDS pp pp pp
-5.0000000000000000e+02 5.0000000000000000e+02
-5.0000000000000000e+02 5.0000000000000000e+02
-5.0000000000000000e+02 5.0000000000000000e+02
ITEM: ATOMS id type x y z c_q[1] c_q[2] c_q[3] c_q[4] 
6 1 174.994 -170.682 -484.276 0.618196 0.19729 0.380359 0.658967 
4 1 491.69 -153.456 -494.01 0.186329 0.759204 0.04952 0.621641 
2 1 -166.629 494.074 -481.274 0.140368 0.162214 0.8566 0.469276 
10 1 499.829 -494.862 -174.657 0.262539 -0.0900569 0.655777 0.702083 
15 1 161.694 -175.436 -171.34 0.665911 0.171252 0.11055 0.717645 
12 1 166.148 497.15 -168.971 0.187374 0.0524971 0.605459 0.771721 
13 1 -498.813 -157.534 -159.009 0.403763 0.449942 0.254501 0.754823 
14 1 -154.58 -156.997 -162.097 0.186999 0.565521 0.737903 0.317359 
11 1 -146.47 478.899 -146.419 0.52508 0.555291 0.437369 0.473974 
5 1 -177.912 -155.481 492.928 0.507037 0.303647 0.451014 0.668804 
7 1 476.059 156.29 484.915 0.497655 0.834825 0.211024 0.104283 
8 1 -161.753 169.908 496.23 0.336699 0.289107 0.387504 0.808017 
9 1 169.721 183.829 498.693 -0.1828 0.444248 0.660037 0.577564 
3 1 167.975 499.054 497.175 -0.0245667 0.738223 0.611281 0.284181 
1 1 485.674 -499.214 499.628 -0.0967664 0.599179 0.772358 0.187304 
ITEM: TIMESTEP
100000
ITEM: NUMBER OF ATOMS
15
ITEM: BOX BOUNDS pp pp pp
-5.0000000000000000e+02 5.0000000000000000e+02
-5.0000000000000000e+02 5.0000000000000000e+02
-5.0000000000000000e+02 5.0000000000000000e+02
ITEM: ATOMS id type x y z c_q[1] c_q[2] c_q[3] c_q[4] 
1 1 483.916 -498.738 -498.926 -0.0971879 0.5906 0.773699 0.207693 
6 1 175.559 -172.689 -485.327 0.626033 0.202244 0.366535 0.657899 
4 1 491.608 -151.047 -493.447 0.232803 0.773195 0.00958931 0.589814 
9 1 169.225 190.747 -498.556 -0.168403 0.406966 0.677753 0.588786 
2 1 -165.689 493.582 -480.236 0.112895 0.228971 0.849765 0.461224 
10 1 -497.945 -493.145 -178.044 0.299059 -0.0647437 0.628253 0.715311 
15 1 157.068 -171.59 -171.319 0.651798 0.204663 0.117051 0.720813 
13 1 -498.639 -159.607 -160.679 0.358863 0.417537 0.273636 0.788672 
14 1 -154.698 -155.588 -164.954 0.129702 0.539898 0.771111 0.31157 
11 1 -148.143 472.644 -146.694 0.511109 0.544456 0.450472 0.489295 
12 1 161.746 497.706 -166.576 0.118992 0.0709721 0.645124 0.751412 
5 1 -177.361 -157.318 497.563 0.535449 0.319348 0.463356 0.629771 
7 1 476.036 155.356 484.186 0.497214 0.835521 0.213738 0.0948625 
8 1 -163.342 168.337 492.952 0.362067 0.262825 0.435566 0.781097 
3 1 171.69 498.113 499.604 0.0265801 0.740386 0.595647 0.310365 
ITEM: TIMESTEP
110000
ITEM: NUMBER OF ATOMS
15
ITEM: BOX BOUNDS pp pp pp
-5.0000000000000000e+02 5.0000000000000000e+02
-5.0000000000000000e+02 5.0000000000000000e+02
-5.0000000000000000e+02 5.0000000000000000e+02
ITEM: ATOMS id type x y z c_q[1] c_q[2] c_q[3] c_q[4] 
3 1 171.899 -495.914 -499.755 -0.063448 0.763342 0.559496 0.316619 
1 1 480.18 -492.027 -491.901 -0.10623 0.555602 0.793224 0.225429 
6 1 177.558 -168.389 -488.259 0.591283 0.19657 0.396754 0.67404 
4 1 492.485 -154.034 -494.117 0.226566 0.786313 0.0126564 0.574648 
9 1 166.732 188.052 -497.36 -0.132062 0.450665 0.640976 0.607132 
2 1 -162.831 496.306 -476.408 0.15383 0.173453 0.855908 0.462247 
10 1 -496.317 -491.296 -176.501 0.26253 -0.0748606 0.623906 0.732267 
12 1 162.322 -500.107 -170.383 0.130342 0.0816355 0.639862 0.752943 
15 1 158.849 -172.654 -167.659 0.675113 0.231806 0.169291 0.67958 
13 1 -496.524 -161.424 -158.266 0.348666 0.416418 0.274379 0.793564 
14 1 -154.7 -152.586 -166.604 0.129012 0.522173 0.769943 0.343334 
11 1 -146.164 475.102 -145.62 0.507887 0.553445 0.395709 0.52836 
5 1 -176.061 -161.69 498.93 0.509576 0.304899 0.467424 0.654892 
7 1 481.456 157.808 481.562 0.4868 0.834036 0.240449 0.0979549 
8 1 -160.736 169.096 493.464 0.34629 0.323395 0.435254 0.765541 
ITEM: TIMESTEP
120000
ITEM: NUMBER OF ATOMS
15
ITEM: BOX BOUNDS pp pp pp
-5.0000000000000000e+02 5.0000000000000000e+02
-5.0000000000000000e+02 5.0000000000000000e+02
-5.0000000000000000e+02 5.0000000000000000e+02
ITEM: ATOMS id type x y z c_q[1] c_q[2] c_q[3] c_q[4] 
3 1 174.44 -499.532 -495.964 -0.0695321 0.803078 0.510058 0.30012 
1 1 481.096 -493.18 -484.355 -0.0924798 0.580377 0.782742 0.204754 
6 1 177.523 -167.505 -488.763 0.591733 0.208119 0.34856 0.696452 
4 1 495.241 -154.39 -488.344 0.221259 0.812464 0.0217031 0.538957 
9 1 165.696 187.328 -497.951 -0.151065 0.470255 0.607253 0.622321 
2 1 -165.371 495.97 -473.569 0.176966 0.231443 0.865398 0.407681 
10 1 -492.257 -488.172 -179.039 0.266564 -0.106599 0.620857 0.729463 
12 1 163.156 -499.849 -170.954 0.138506 0.0990746 0.666158 0.726109 
15 1 155.394 -171.497 -168.099 0.662247 0.211652 0.176126 0.696859 
14 1 -154.216 -150.175 -166.791 0.20153 0.546832 0.730114 0.356783 
13 1 -497.761 -165.048 -161.812 0.349654 0.422853 0.234022 0.802603 
11 1 -144.43 470.256 -143.495 0.479987 0.563458 0.389667 0.547985 
5 1 -178.344 -162.508 496.81 0.502973 0.276021 0.497348 0.65075 
7 1 479.741 155.327 479.858 0.523742 0.813535 0.228833 0.107192 
8 1 -155.49 171.189 490.887 0.320155 0.312353 0.453304 0.771007 
ITEM: TIMESTEP
130000
ITEM: NUMBER OF ATOMS
15
ITEM: BOX BOUNDS pp pp pp
-5.0000000000000000e+02 5.0000000000000000e+02
-5.0000000000000000e+02 5.0000000000000000e+02
-5.0000000000000000e+02 5.0000000000000000e+02
ITEM: ATOMS id type x y z c_q[1] c_q[2] c_q[3] c_q[4] 
3 1 172.717 -492.856 -496.989 -0.0472695 0.806729 0.504214 0.304502 
1 1 481.853 -498.167 -483.744 -0.124377 0.526205 0.814588 0.209963 
6 1 184.316 -167.218 -490.024 0.54592 0.205402 0.36839 0.723927 
4 1 493.761 -151.173 -484.753 0.220067 0.792744 0.0474752 0.566457 
9 1 168.686 182.032 -494.609 -0.158479 0.554889 0.564483 0.590205 
2 1 -167.374 489.089 -473.893 0.181084 0.238273 0.858815 0.415778 
10 1 -490.737 -486.367 -178.055 0.32622 -0.0782405 0.602889 0.723867 
12 1 163.977 -498.078 -171.691 0.137374 0.117528 0.642001 0.745084 
15 1 156.435 -169.152 -168.838 0.637343 0.210746 0.181601 0.71861 
14 1 -152.352 -147.367 -170.412 0.214262 0.507343 0.750553 0.365193 
13 1 -499.124 -159.432 -162.793 0.375742 0.380328 0.227094 0.814 
11 1 -143.426 472.416 -146.574 0.445622 0.558982 0.413353 0.564003 
5 1 -179.463 -157.392 495.086 0.456425 0.314848 0.511256 0.656631 
7 1 482.113 155.042 478.229 0.501116 0.820336 0.273349 0.0348224 
8 1 -155.535 170.203 495.335 0.322156 0.281641 0.479993 0.765833 
ITEM: TIMESTEP
140000
ITEM: NUMBER OF ATOMS
15
ITEM: BOX BOUNDS pp pp pp
-5.0000000000000000e+02 5.0000000000000000e+02
-5.0000000000000000e+02 5.0000000000000000e+02
-5.0000000000000000e+02 5.0000000000000000e+02
ITEM: ATOMS id type x y z c_q[1] c_q[2] c_q[3] c_q[4] 
1 1 481.525 -498.233 -485.548 -0.115363 0.524276 0.80924 0.238656 
6 1 177.274 -168.343 -485.799 0.591385 0.231944 0.35837 0.684132 
4 1 -500.438 -148.488 -487.06 0.188607 0.828297 0.0409472 0.525999 
9 1 163.324 180.706 -496.214 -0.1252 0.578267 0.562782 0.577242 
2 1 -169.062 491.09 -475.591 0.175123 0.232284 0.871159 0.395548 
10 1 -491.465 -485.417 -179.152 0.313803 -0.0411838 0.620452 0.717545 
12 1 163.194 -499.891 -170.577 0.188284 0.126357 0.661631 0.714722 
15 1 155.811 -167.715 -169.899 0.577609 0.23791 0.166741 0.762866 
14 1 -153.263 -143.726 -171.694 0.180889 0.543301 0.736277 0.360555 
13 1 -499.88 -157.368 -165.726 0.334313 0.400114 0.230251 0.821662 
11 1 -139.712 470.051 -145.53 0.444492 0.572349 0.425997 0.541636 
3 1 174.319 -484.098 498.54 -0.0359843 0.815083 0.488267 0.309743 
5 1 -178.689 -154.037 498.818 0.425618 0.342835 0.501404 0.670751 
7 1 483.937 158.17 475.04 0.516371 0.799997 0.291169 0.0926614 
8 1 -153.506 175.402 498.53 0.324774 0.31131 0.47372 0.757098 
ITEM: TIMESTEP
150000
ITEM: NUMBER OF ATOMS
15
ITEM: BOX BOUNDS pp pp pp
-5.0000000000000000e+02 5.0000000000000000e+02
-5.0000000000000000e+02 5.0000000000000000e+02
-5.0000000000000000e+02 5.0000000000000000e+02
ITEM: ATOMS id type x y z c_q[1] c_q[2] c_q[3] c_q[4] 
3 1 178.23 -489.726 -498.54 -0.0555474 0.815838 0.485563 0.309114 
1 1 481.864 -498.344 -482.019 -0.0786455 0.550107 0.804393 0.210118 
6 1 179.768 -166.691 -485.892 0.61635 0.210418 0.336207 0.680295 
4 1 499.313 -152.849 -487.169 0.156976 0.813394 0.0112206 0.56002 
9 1 161.751 178.735 -496.789 -0.0796711 0.599717 0.570895 0.555041 
2 1 -169.793 490.794 -475.277 0.174037 0.264559 0.872807 0.371385 
10 1 -483.578 -481.433 -179.124 0.343337 -0.0301212 0.611903 0.71189 
15 1 153.752 -166.194 -174.326 0.577241 0.211544 0.154053 0.773505 
14 1 -150.313 -142.928 -179.31 0.138204 0.506472 0.733865 0.431077 
13 1 495.439 -160.363 -171.542 0.301559 0.39938 0.243203 0.830909 
12 1 162.206 491.663 -171.072 0.221993 0.12483 0.649646 0.716307 
11 1 -140.524 466.128 -147.65 0.449971 0.570108 0.405527 0.555024 
5 1 -176.401 -155.81 496.333 0.3939 0.363255 0.489111 0.688229 
7 1 484.882 156.43 476.729 0.508376 0.78476 0.338327 0.106018 
8 1 -154.649 172.3 496.587 0.324572 0.277001 0.480278 0.766327 
ITEM: TIMESTEP
160000
ITEM: NUMBER OF ATOMS
15
ITEM: BOX BOUNDS pp pp pp
-5.0000000000000000e+02 5.0000000000000000e+02
-5.0000000000000000e+02 5.0000000000000000e+02
-5.0000000000000000e+02 5.0000000000000000e+02
ITEM: ATOMS id type x y z c_q[1] c_q[2] c_q[3] c_q[4] 
1 1 477.873 -497.119 -485.598 -0.0824614 0.547814 0.811739 0.184875 
6 1 184.187 -171.101 -489.108 0.659219 0.218197 0.314787 0.647093 
4 1 -495.612 -152.908 -480.68 0.155559 0.806398 -0.00963545 0.570465 
9 1 160.907 181.354 -496.641 -0.0914058 0.60023 0.621535 0.495039 
2 1 -164.645 491.105 -476.796 0.200121 0.24695 0.88917 0.329158 
10 1 -478.805 -479.397 -176.484 0.335791 -0.0837085 0.612318 0.710848 
13 1 -498.178 -162.835 -166.57 0.315 0.363873 0.210219 0.850987 
14 1 -142.665 -138.815 -175.218 0.165153 0.455304 0.759007 0.435123 
15 1 155.348 -167.021 -174.534 0.594558 0.205903 0.138462 0.764809 
12 1 164.589 495.015 -166.66 0.225637 0.136937 0.656339 0.706793 
11 1 -138.227 466.631 -149.529 0.458294 0.581248 0.366381 0.56381 
3 1 176.203 -488.773 -499.088 -0.0440465 0.816542 0.473229 0.327678 
5 1 -177.138 -154.063 495.079 0.369913 0.305872 0.537187 0.693568 
7 1 482.552 159.328 479.756 0.534029 0.764557 0.356117 0.0587108 
8 1 -151.129 169.954 493.988 0.31533 0.250123 0.495511 0.769724 
ITEM: TIMESTEP
170000
ITEM: NUMBER OF ATOMS
15
ITEM: BOX BOUNDS pp pp pp
-5.0000000000000000e+02 5.0000000000000000e+02
-5.0000000000000000e+02 5.0000000000000000e+02
-5.0000000000000000e+02 5.0000000000000000e+02
ITEM: ATOMS id type x y z c_q[1] c_q[2] c_q[3] c_q[4] 
3 1 179.648 -490.86 -494.009 -0.0747905 0.776717 0.528056 0.335073 
1 1 479.539 -496.435 -484.61 -0.0886824 0.569869 0.788933 0.212061 
6 1 178.703 -165.995 -495.632 0.641955 0.214506 0.362632 0.640608 
4 1 499.005 -157.088 -485.123 0.131877 0.813671 0.022353 0.565728 
9 1 162.049 188.456 -495.126 -0.120969 0.600224 0.614967 0.496903 
2 1 -165.064 490.302 -477.292 0.194303 0.256438 0.883971 0.339235 
10 1 -481.23 -478.614 -177.565 0.278872 -0.0491278 0.636619 0.717309 
15 1 154.294 -166.392 -174.92 0.577338 0.143313 0.120943 0.794679 
13 1 -498.194 -163.566 -169.79 0.273153 0.37677 0.197582 0.862782 
14 1 -143.178 -143.087 -173.296 0.135548 0.449472 0.760896 0.447928 
11 1 -135.766 462.421 -147.176 0.436938 0.595434 0.365757 0.566362 
12 1 166.826 495.801 -166.606 0.191377 0.0755477 0.657559 0.724764 
5 1 -176.322 -155.749 497.603 0.361396 0.341522 0.530845 0.686264 
7 1 488.594 155.314 476.933 0.581614 0.73918 0.328706 0.0853833 
8 1 -152.228 167.038 491.56 0.289389 0.29161 0.51092 0.755102 
ITEM: TIMESTEP
180000
ITEM: NUMBER OF ATOMS
15
ITEM: BOX BOUNDS pp pp pp
-5.0000000000000000e+02 5.0000000000000000e+02
-5.0000000000000000e+02 5.0000000000000000e+02
-5.0000000000000000e+02 5.0000000000000000e+02
ITEM: ATOMS id type x y z c_q[1] c_q[2] c_q[3] c_q[4] 
3 1 182.13 -492.166 -495.59 -0.0458787 0.778736 0.527213 0.336916 
1 1 477.929 -494.01 -482.964 -0.0831539 0.534573 0.816407 0.201984 
6 1 184.435 -172.334 -495.808 0.664875 0.1909 0.321644 0.646562 
4 1 -494.832 -155.463 -480.677 0.145379 0.817035 0.061811 0.554525 
9 1 161.76 196.034 -491.04 -0.155864 0.633099 0.608749 0.452014 
2 1 -168.618 494.334 -475.949 0.148119 0.21902 0.900944 0.34408 
10 1 -479.509 -474.182 -177.467 0.250812 -0.032548 0.644206 0.721826 
15 1 151.488 -168.645 -179.94 0.597976 0.151528 0.0933382 0.781506 
13 1 -497.839 -164.544 -172.192 0.315459 0.322972 0.278218 0.847803 
14 1 -139.882 -139.061 -170.772 0.149743 0.442142 0.769194 0.436381 
12 1 167.049 492.99 -167.97 0.193727 0.137732 0.657574 0.71491 
11 1 -133.013 459.517 -147.964 0.412428 0.638708 0.368239 0.535122 
5 1 -175.379 -155.302 493.924 0.424457 0.395449 0.512689 0.632935 
7 1 486.461 153.668 478.677 0.649591 0.691528 0.288264 0.129323 
8 1 -148.52 166.757 491.285 0.309923 0.265544 0.48174 0.775474 
ITEM: TIMESTEP
190000
ITEM: NUMBER OF ATOMS
15
ITEM: BOX BOUNDS pp pp pp
-5.0000000000000000e+02 5.0000000000000000e+02
-5.0000000000000000e+02 5.0000000000000000e+02
-5.0000000000000000e+02 5.0000000000000000e+02
ITEM: ATOMS id type x y z c_q[1] c_q[2] c_q[3] c_q[4] 
3 1 180.053 -490.816 -495.71 -0.081213 0.781921 0.514693 0.34219 
1 1 476.578 -496.406 -480.122 -0.101591 0.543772 0.8039 0.218486 
6 1 184.856 -172.169 -494.545 0.659428 0.143481 0.351565 0.648821 
4 1 -497.439 -156.138 -484.155 0.151531 0.814911 0.0485899 0.557313 
9 1 166.289 194.75 -492.248 -0.130136 0.626955 0.615458 0.459569 
2 1 -171.316 492.953 -476.764 0.166253 0.198837 0.904464 0.338774 
10 1 -487.72 -477.686 -173.628 0.220323 -0.0605739 0.638461 0.734953 
14 1 -144.17 -135.11 -176.066 0.171536 0.39218 0.781109 0.454575 
15 1 155.112 -167.128 -183.769 0.586522 0.0989833 0.0836573 0.799497 
13 1 498.574 -165.684 -173.928 0.415006 0.291662 0.229948 0.830558 
12 1 172.633 487.293 -167.026 0.184405 0.157869 0.68387 0.688036 
11 1 -135.266 459.369 -147.49 0.434979 0.630284 0.376197 0.521547 
5 1 -178.194 -158.194 496.207 0.374436 0.437383 0.477208 0.663903 
8 1 -149.807 164.423 490.408 0.284317 0.295016 0.526538 0.744907 
7 1 484.404 157.771 478.312 0.637403 0.684302 0.324758 0.141351 
ITEM: TIMESTEP
200000
ITEM: NUMBER OF ATOMS
15
ITEM: BOX BOUNDS pp pp pp
-5.0000000000000000e+02 5.0000000000000000e+02
-5.0000000000000000e+02 5.0000000000000000e+02
-5.0000000000000000e+02 5.0000000000000000e+02
ITEM: ATOMS id type x y z c_q[1] c_q[2] c_q[3] c_q[4] 
3 1 183.62 -489.941 -492.036 -0.023684 0.748688 0.529361 0.39835 
1 1 475.042 -493.604 -477.02 -0.130489 0.562641 0.787385 0.215481 
6 1 180.047 -175.82 -497.794 0.647394 0.155507 0.362161 0.652332 
4 1 -495.19 -152.183 -483.254 0.149462 0.826085 0.0341912 0.542287 
5 1 -174.67 -150.337 -499.44 0.368516 0.423118 0.466009 0.684107 
9 1 169.564 196.933 -488.012 -0.151151 0.67998 0.572585 0.432351 
2 1 -170.183 486.686 -479.597 0.187062 0.193367 0.917352 0.293397 
10 1 -480.704 -474.421 -173.42 0.255896 -0.0319376 0.668963 0.697127 
15 1 147.78 -167.51 -188.079 0.649081 0.0990903 0.0548133 0.752244 
14 1 -144.02 -129.352 -175.254 0.182493 0.398007 0.792476 0.42458 
13 1 498.725 -164.613 -172.789 0.434559 0.283573 0.226822 0.824195 
12 1 176.557 485.959 -170.523 0.180074 0.145001 0.711971 0.663057 
11 1 -139.593 461.314 -145.717 0.435167 0.631041 0.34325 0.542767 
8 1 -150.209 163.551 491.151 0.344429 0.30873 0.51792 0.719592 
7 1 481.844 156.676 480.939 0.64575 0.688972 0.302448 0.129806 
ITEM: TIMESTEP
210000
ITEM: NUMBER OF ATOMS
15
ITEM: BOX BOUNDS pp pp pp
-5.0000000000000000e+02 5.0000000000000000e+02
-5.0000000000000000e+02 5.0000000000000000e+02
-5.0000000000000000e+02 5.0000000000000000e+02
ITEM: ATOMS id type x y z c_q[1] c_q[2] c_q[3] c_q[4] 
3 1 187.328 -489.119 -493.54 0.00843162 0.774397 0.481225 0.410683 
1 1 472.52 -496.529 -481.146 -0.0695345 0.495084 0.839057 0.214571 
6 1 178.565 -176.662 -499.093 0.622235 0.137186 0.362167 0.680323 
4 1 -493.327 -148.508 -479.398 0.151654 0.822457 0.075305 0.543041 
5 1 -173.619 -154.25 -498.749 0.401092 0.42737 0.492778 0.643157 
9 1 171.122 193.932 -484.978 -0.178689 0.708814 0.546854 0.408171 
2 1 -175.359 484.004 -478.965 0.170437 0.23289 0.915446 0.280485 
10 1 -479.264 -476.793 -177.499 0.264587 0.00497819 0.712981 0.649328 
15 1 145.059 -167.426 -187.187 0.618107 0.132456 0.0754953 0.771168 
14 1 -136.07 -129.491 -174.032 0.237726 0.391586 0.807308 0.372023 
13 1 497.842 -167.74 -177.281 0.473262 0.228256 0.238832 0.816628 
12 1 172.54 485.396 -172.418 0.165194 0.205113 0.719176 0.642982 
11 1 -138.099 460.572 -144.338 0.405336 0.654282 0.333455 0.54445 
8 1 -154.668 164.858 486.133 0.3572 0.301123 0.488831 0.736734 
7 1 472.461 150.769 481.472 0.6471 0.678125 0.314705 0.149563 
ITEM: TIMESTEP
220000
ITEM: NUMBER OF ATOMS
15
ITEM: BOX BOUNDS pp pp pp
-5.0000000000000000e+02 5.0000000000000000e+02
-5.0000000000000000e+02 5.0000000000000000e+02
-5.0000000000000000e+02 5.0000000000000000e+02
ITEM: ATOMS id type x y z c_q[1] c_q[2] c_q[3] c_q[4] 
3 1 186.89 -496.508 -498.721 0.0781705 0.772037 0.465339 0.425803 
1 1 473.66 -497.163 -479.997 -0.0182554 0.490594 0.82731 0.273024 
6 1 176.6 -179.859 -497.517 0.606789 0.170838 0.397104 0.667031 
4 1 -495.202 -151.934 -472.989 0.186075 0.82955 0.0550558 0.523634 
9 1 168.902 188.71 -485.171 -0.19275 0.706276 0.555859 0.393754 
2 1 -173.261 484.014 -479.066 0.211865 0.271328 0.898974 0.270815 
10 1 -481.629 -480.033 -173.934 0.283082 0.0628038 0.715615 0.635464 
15 1 147.144 -170.062 -186.594 0.63745 0.164515 0.0730568 0.749169 
13 1 500.659 -170.076 -184.712 0.44468 0.251643 0.238387 0.825898 
14 1 -131.511 -128.873 -172.163 0.229619 0.408088 0.810388 0.352152 
12 1 173.214 483.329 -172.02 0.172253 0.169665 0.710465 0.660895 
11 1 -137.873 465.688 -141.252 0.40026 0.629669 0.32822 0.579292 
5 1 -177.69 -154.178 495.385 0.416402 0.362248 0.494734 0.671286 
8 1 -151.494 162.033 490.177 0.39334 0.332605 0.422581 0.74571 
7 1 475.522 153.88 479.473 0.648746 0.688075 0.297755 0.130476 
ITEM: TIMESTEP
230000
ITEM: NUMBER OF ATOMS
15
ITEM: BOX BOUNDS pp pp pp
-5.0000000000000000e+02 5.0000000000000000e+02
-5.0000000000000000e+02 5.0000000000000000e+02
-5.0000000000000000e+02 5.0000000000000000e+02
ITEM: ATOMS id type x y z c_q[1] c_q[2] c_q[3] c_q[4] 
3 1 185.567 -492.804 499.015 0.0448793 0.762975 0.491698 0.417239 
1 1 472.735 -496.811 -476.872 -0.0402162 0.492687 0.825603 0.272068 
6 1 175.108 -179.332 -499.321 0.570922 0.19135 0.389541 0.696916 
4 1 -497.796 -152.446 -469.976 0.20409 0.820873 0.00909572 0.533322 
9 1 166.881 188.569 -482.959 -0.18376 0.704429 0.566032 0.386808 
2 1 -171.289 478.649 -485.634 0.189787 0.278913 0.906865 0.252554 
10 1 -480.544 -480.653 -175.376 0.26568 0.0972915 0.746246 0.602549 