LAMMPS data file

20 atoms
20 ellipsoids
0 bonds
0 angles
0 dihedrals

1 atom types
0 bond types
0 angle types
0 dihedral types

-500.000000 500.000000 xlo xhi
-500.000000 500.000000 ylo yhi
-500.000000 500.000000 zlo zhi

Masses

1 203166.000000

Atoms

1 1 -500.000000 -500.000000 -500.000000 1 1.000000 3 0.000000
2 1 -166.666667 -500.000000 -500.000000 1 1.000000 4 0.000000
3 1 166.666667 -500.000000 -500.000000 1 1.000000 5 0.000000
4 1 -500.000000 -166.666667 -500.000000 1 1.000000 6 0.000000
5 1 -166.666667 -166.666667 -500.000000 1 1.000000 7 0.000000
6 1 166.666667 -166.666667 -500.000000 1 1.000000 8 0.000000
7 1 -500.000000 166.666667 -500.000000 1 1.000000 9 0.000000
8 1 -166.666667 166.666667 -500.000000 1 1.000000 10 0.000000
9 1 166.666667 166.666667 -500.000000 1 1.000000 11 0.000000
10 1 -500.000000 -500.000000 -166.666667 1 1.000000 12 0.000000
11 1 -166.666667 -500.000000 -166.666667 1 1.000000 13 0.000000
12 1 166.666667 -500.000000 -166.666667 1 1.000000 14 0.000000
13 1 -500.000000 -166.666667 -166.666667 1 1.000000 15 0.000000
14 1 -166.666667 -166.666667 -166.666667 1 1.000000 16 0.000000
15 1 166.666667 -166.666667 -166.666667 1 1.000000 17 0.000000
16 1 -500.000000 166.666667 -166.666667 1 1.000000 18 0.000000
17 1 -166.666667 166.666667 -166.666667 1 1.000000 19 0.000000
18 1 166.666667 166.666667 -166.666667 1 1.000000 20 0.000000
19 1 -500.000000 -500.000000 166.666667 1 1.000000 21 0.000000
20 1 -166.666667 -500.000000 166.666667 1 1.000000 22 0.000000

Ellipsoids

1 55.000000 110.000000 110.000000 0.633018 0.058899 0.029336 0.771335
2 55.000000 110.000000 110.000000 0.752606 0.260885 0.498641 0.341879
3 55.000000 110.000000 110.000000 0.272942 0.351517 0.050567 0.894081
4 55.000000 110.000000 110.000000 0.360858 0.416730 0.825915 0.118248
5 55.000000 110.000000 110.000000 0.609714 0.133105 0.679280 0.386148
6 55.000000 110.000000 110.000000 0.118638 0.709094 0.011068 0.694974
7 55.000000 110.000000 110.000000 0.423912 0.516061 0.626457 0.401911
8 55.000000 110.000000 110.000000 0.813690 0.474908 0.333539 0.033506
9 55.000000 110.000000 110.000000 0.230234 0.689808 0.310196 0.612320
10 55.000000 110.000000 110.000000 0.530496 0.537166 0.648175 0.099479
11 55.000000 110.000000 110.000000 0.799226 0.335404 0.477575 0.143754
12 55.000000 110.000000 110.000000 0.289929 0.325395 0.741553 0.510057
13 55.000000 110.000000 110.000000 0.448993 0.442894 0.699355 0.336382
14 55.000000 110.000000 110.000000 0.370564 0.763036 0.315982 0.424986
15 55.000000 110.000000 110.000000 0.299719 0.591007 0.548858 0.509543
16 55.000000 110.000000 110.000000 0.033515 0.568928 0.158518 0.806269
17 55.000000 110.000000 110.000000 0.243833 0.805343 0.463320 0.278034
18 55.000000 110.000000 110.000000 0.516789 0.399690 0.341375 0.675751
19 55.000000 110.000000 110.000000 0.739755 0.375803 0.550802 0.090281
20 55.000000 110.000000 110.000000 0.632571 0.739390 0.216217 0.080038




