ITEM: TIMESTEP
0
ITEM: NUMBER OF ATOMS
20
ITEM: BOX BOUNDS pp pp pp
-5.0000000000000000e+02 5.0000000000000000e+02
-5.0000000000000000e+02 5.0000000000000000e+02
-5.0000000000000000e+02 5.0000000000000000e+02
ITEM: ATOMS id type x y z c_q[1] c_q[2] c_q[3] c_q[4] 
1 1 -500 -500 -500 0.633018 0.058899 0.029336 0.771335 
2 1 -166.667 -500 -500 0.752606 0.260885 0.498641 0.341879 
3 1 166.667 -500 -500 0.272942 0.351517 0.050567 0.894081 
4 1 -500 -166.667 -500 0.360858 0.41673 0.825915 0.118248 
5 1 -166.667 -166.667 -500 0.609714 0.133105 0.67928 0.386148 
6 1 166.667 -166.667 -500 0.118638 0.709094 0.011068 0.694974 
7 1 -500 166.667 -500 0.423912 0.516061 0.626457 0.401911 
8 1 -166.667 166.667 -500 0.81369 0.474908 0.333539 0.033506 
9 1 166.667 166.667 -500 0.230234 0.689808 0.310196 0.61232 
10 1 -500 -500 -166.667 0.530496 0.537166 0.648175 0.099479 
11 1 -166.667 -500 -166.667 0.799226 0.335404 0.477575 0.143754 
12 1 166.667 -500 -166.667 0.289929 0.325395 0.741553 0.510057 
13 1 -500 -166.667 -166.667 0.448993 0.442894 0.699355 0.336382 
14 1 -166.667 -166.667 -166.667 0.370564 0.763036 0.315982 0.424986 
15 1 166.667 -166.667 -166.667 0.299719 0.591007 0.548858 0.509543 
16 1 -500 166.667 -166.667 0.033515 0.568928 0.158518 0.806269 
17 1 -166.667 166.667 -166.667 0.243833 0.805343 0.46332 0.278034 
18 1 166.667 166.667 -166.667 0.516789 0.39969 0.341375 0.675751 
19 1 -500 -500 166.667 0.739755 0.375803 0.550802 0.0902811 
20 1 -166.667 -500 166.667 0.632571 0.73939 0.216217 0.080038 
ITEM: TIMESTEP
10000
ITEM: NUMBER OF ATOMS
20
ITEM: BOX BOUNDS pp pp pp
-5.0000000000000000e+02 5.0000000000000000e+02
-5.0000000000000000e+02 5.0000000000000000e+02
-5.0000000000000000e+02 5.0000000000000000e+02
ITEM: ATOMS id type x y z c_q[1] c_q[2] c_q[3] c_q[4] 
1 1 -497.516 -499.056 -499.069 0.662933 0.0730917 0.0753989 0.741277 
5 1 -171.819 -168.422 499.658 0.63407 0.115648 0.664118 0.378852 
3 1 169.579 499.27 -497.848 0.288685 0.384675 0.0770793 0.873353 
15 1 164.746 -171.684 -166.617 0.27385 0.557683 0.583584 0.522901 
14 1 -166.849 -162.726 -169.446 0.387481 0.748438 0.328328 0.426498 
18 1 169.404 161.213 -169.04 0.544767 0.40637 0.314612 0.662654 
12 1 167.702 498.126 -167.437 0.276077 0.317928 0.752152 0.506922 
11 1 -166.469 -499.672 -157.554 0.826068 0.30395 0.45888 0.121061 
10 1 493.586 -494.761 -163.882 0.532998 0.535179 0.650703 0.0779881 
13 1 496.415 -165.49 -166.152 0.472828 0.434801 0.700842 0.310165 
16 1 -498.97 162.936 -167.207 0.0733409 0.602546 0.118411 0.785836 
17 1 -166.441 173.47 -162.947 0.225639 0.802896 0.465322 0.296515 
19 1 494.987 -494.452 164.267 0.735439 0.395551 0.539262 0.108923 
20 1 -161.099 498.245 171.646 0.635458 0.729445 0.251858 0.025882 
2 1 -169.339 -495.002 497.002 0.749237 0.299209 0.467606 0.361195 
4 1 -496.255 -164.182 499.222 0.364967 0.454735 0.806206 0.100235 
6 1 168.433 -164.954 497.387 0.130792 0.718552 0.0207174 0.68275 
9 1 159.358 166.234 495.724 0.225565 0.643949 0.336715 0.648901 
7 1 499.236 168.08 498.547 0.425058 0.502887 0.630145 0.411518 
8 1 -164.317 166.813 499.11 0.814812 0.477586 0.327601 0.0258795 
ITEM: TIMESTEP
20000
ITEM: NUMBER OF ATOMS
20
ITEM: BOX BOUNDS pp pp pp
-5.0000000000000000e+02 5.0000000000000000e+02
-5.0000000000000000e+02 5.0000000000000000e+02
-5.0000000000000000e+02 5.0000000000000000e+02
ITEM: ATOMS id type x y z c_q[1] c_q[2] c_q[3] c_q[4] 
2 1 -166.935 -494.934 -494.994 0.752699 0.331714 0.4265 0.376175 
8 1 -167.54 166.424 499.069 0.792519 0.486834 0.363973 -0.0492844 
1 1 499.011 497.587 -496.782 0.664868 0.118851 0.0798981 0.733104 
15 1 162.323 -170.829 -167.295 0.270966 0.527603 0.592854 0.544735 
13 1 -499.217 -163.215 -167.38 0.485436 0.41174 0.702226 0.318907 
16 1 -495.596 162.556 -174.448 0.0692594 0.5992 0.134637 0.786152 
18 1 169.605 161.144 -168.697 0.521678 0.378283 0.309761 0.699144 
12 1 166.033 -498.69 -170.298 0.308819 0.294743 0.715783 0.552641 
11 1 -162.845 -492.9 -157.982 0.82181 0.287253 0.479724 0.109446 
14 1 -163.5 -164.158 -164.116 0.419684 0.731101 0.363643 0.396384 
17 1 -169.444 168.839 -160.441 0.168154 0.801242 0.505005 0.273325 
10 1 485.043 499.108 -161.823 0.532565 0.540354 0.648777 0.0589948 
19 1 492.558 -493.258 165.839 0.748404 0.396095 0.523111 0.096718 
20 1 -165.481 -493.489 172.612 0.63191 0.734244 0.246808 0.0257177 
4 1 -493.978 -167.083 492.034 0.362295 0.474126 0.797597 0.0882349 
5 1 -174.333 -170.111 496.004 0.645422 0.145862 0.648427 0.376428 
6 1 168.751 -163.039 496.552 0.13635 0.704968 0.0448446 0.694563 
9 1 157.641 162.575 491.84 0.276079 0.67472 0.299048 0.615714 
7 1 493.688 174.065 494.08 0.424658 0.526115 0.631341 0.379839 
3 1 169.277 498.765 -499.62 0.273799 0.412488 0.106303 0.862315 
ITEM: TIMESTEP
30000
ITEM: NUMBER OF ATOMS
20
ITEM: BOX BOUNDS pp pp pp
-5.0000000000000000e+02 5.0000000000000000e+02
-5.0000000000000000e+02 5.0000000000000000e+02
-5.0000000000000000e+02 5.0000000000000000e+02
ITEM: ATOMS id type x y z c_q[1] c_q[2] c_q[3] c_q[4] 
2 1 -169.701 -488.141 -492.697 0.727949 0.365142 0.428479 0.391365 
8 1 -164.611 158.98 -499.671 0.778405 0.478086 0.404055 -0.0475262 
3 1 166.719 497.607 -496.552 0.318528 0.42969 0.126594 0.835392 
1 1 499.167 493.719 -494.722 0.680705 0.0865364 0.065053 0.724514 
12 1 167.643 -496.283 -173.127 0.302501 0.298551 0.720592 0.547821 
15 1 155.171 -167.106 -171.226 0.317527 0.507206 0.527665 0.6029 
13 1 -498.516 -163.746 -169.68 0.460014 0.38594 0.738056 0.307752 
16 1 -499.22 162.974 -174.311 0.0894974 0.592699 0.0864259 0.795756 
11 1 -163.343 -493.674 -156.783 0.802274 0.308358 0.503923 0.0856327 
14 1 -164.32 -165.953 -163.675 0.433343 0.72055 0.329978 0.42911 
17 1 -168.656 171.467 -156.126 0.182478 0.817655 0.488541 0.243865 
18 1 165.796 168.848 -165.629 0.538104 0.404447 0.308181 0.672228 
10 1 485.167 497.468 -162.162 0.515075 0.531746 0.670878 0.0432127 
19 1 492.857 499.022 164.491 0.78968 0.358839 0.488951 0.0925525 
20 1 -158.601 -488.593 169.684 0.641703 0.743718 0.186786 -0.0145803 
4 1 -494.872 -164.205 495.357 0.34555 0.456899 0.810443 0.12256 
5 1 -175.545 -165.513 494.421 0.630027 0.155494 0.637005 0.416068 
6 1 171.416 -158.577 498.289 0.142789 0.678363 0.0370694 0.719764 
9 1 157.642 159.389 490.744 0.288535 0.678227 0.29439 0.608351 
7 1 494.38 166.035 498.23 0.434875 0.522893 0.634586 0.367107 
ITEM: TIMESTEP
40000
ITEM: NUMBER OF ATOMS
20
ITEM: BOX BOUNDS pp pp pp
-5.0000000000000000e+02 5.0000000000000000e+02
-5.0000000000000000e+02 5.0000000000000000e+02
-5.0000000000000000e+02 5.0000000000000000e+02
ITEM: ATOMS id type x y z c_q[1] c_q[2] c_q[3] c_q[4] 
2 1 -166.11 -493.596 -493.125 0.700236 0.396257 0.441715 0.396911 
4 1 -491.177 -167.415 -499.196 0.385873 0.479229 0.780515 0.110622 
7 1 496.337 170.576 -496.374 0.416511 0.516403 0.666072 0.340874 
3 1 167.355 499.214 -493.071 0.32602 0.398922 0.121282 0.848447 
1 1 497.595 494.645 -498.125 0.674586 0.0905424 0.054785 0.730571 
12 1 166.426 -494.802 -174.141 0.292809 0.266264 0.742604 0.540283 
15 1 157.625 -171.094 -175.382 0.278163 0.503835 0.548732 0.606357 
13 1 -498.135 -160.48 -170.84 0.491649 0.414324 0.708376 0.291238 
16 1 -498.426 159.67 -176.836 0.1357 0.613619 0.114517 0.769379 
11 1 -160.885 -498.777 -153.584 0.81539 0.299484 0.486086 0.0957523 
14 1 -164.16 -167.565 -161.168 0.380452 0.727594 0.323283 0.47048 
17 1 -168.164 168.112 -158.165 0.188539 0.794911 0.511679 0.265998 
18 1 163.805 172.705 -166.758 0.55993 0.429022 0.30953 0.63766 
10 1 485.857 495.947 -162.083 0.530444 0.538775 0.654449 0.00684201 
20 1 -162.244 -484.169 172.305 0.632819 0.752695 0.179385 -0.0284757 
19 1 497.573 498.606 167.52 0.789262 0.32808 0.501845 0.132592 
5 1 -179.482 -170.31 -499.771 0.660391 0.107405 0.618095 0.412682 
6 1 170.877 -154.574 496.163 0.1038 0.689501 0.0403871 0.71567 
8 1 -167.093 163.104 499.717 0.789399 0.465032 0.399723 -0.0285754 
9 1 154.795 158.29 490.664 0.277149 0.681203 0.310759 0.602146 
ITEM: TIMESTEP
50000
ITEM: NUMBER OF ATOMS
20
ITEM: BOX BOUNDS pp pp pp
-5.0000000000000000e+02 5.0000000000000000e+02
-5.0000000000000000e+02 5.0000000000000000e+02
-5.0000000000000000e+02 5.0000000000000000e+02
ITEM: ATOMS id type x y z c_q[1] c_q[2] c_q[3] c_q[4] 
2 1 -172.245 -494.341 -494.789 0.690141 0.351826 0.460232 0.433717 
3 1 169.391 -495.602 -487.092 0.300643 0.435223 0.153455 0.834653 
4 1 -489.888 -171.128 -498.497 0.403865 0.481179 0.769748 0.113349 
8 1 -165.636 161.372 499.885 0.786221 0.451192 0.408498 -0.106823 
7 1 496.424 171.725 -496.938 0.414072 0.516183 0.680851 0.313913 
1 1 497.802 493.712 -498.105 0.631484 0.0904278 0.0879602 0.765058 
12 1 166.421 -496.508 -176.066 0.296608 0.245502 0.732026 0.562042 
15 1 161.293 -169.714 -177.769 0.280285 0.489253 0.521032 0.640779 
13 1 497.656 -162.537 -174.607 0.512212 0.449061 0.671439 0.29181 
16 1 -497.934 158.554 -177.365 0.134152 0.65704 0.11855 0.732289 
11 1 -158.118 -496.744 -153.994 0.855214 0.290389 0.425431 0.0573799 
14 1 -165.518 -167.451 -162.832 0.41845 0.699175 0.331983 0.475228 
17 1 -169.701 169.171 -156.373 0.170151 0.787703 0.518239 0.286358 
18 1 164.911 176.339 -163.207 0.539074 0.393416 0.326942 0.669128 
10 1 482.135 497.013 -160.584 0.526365 0.554863 0.644159 -0.0112263 
20 1 -163.271 -480.315 177.548 0.620506 0.771138 0.142481 0.00421496 
19 1 497.648 -497.061 171.342 0.814042 0.34136 0.456105 0.113034 
5 1 -179.972 -176.049 499.134 0.654566 0.0776632 0.613416 0.435009 
6 1 165.738 -152.284 494.746 0.189985 0.624956 -0.00396082 0.757179 
9 1 156.317 158.664 491.503 0.319675 0.691383 0.294988 0.57687 
ITEM: TIMESTEP
60000
ITEM: NUMBER OF ATOMS
20
ITEM: BOX BOUNDS pp pp pp
-5.0000000000000000e+02 5.0000000000000000e+02
-5.0000000000000000e+02 5.0000000000000000e+02
-5.0000000000000000e+02 5.0000000000000000e+02
ITEM: ATOMS id type x y z c_q[1] c_q[2] c_q[3] c_q[4] 
2 1 -164.106 -491.965 -494.939 0.716269 0.317444 0.41389 0.463556 
3 1 164.567 -495.196 -489.127 0.302682 0.455425 0.130816 0.826957 
4 1 -490.656 -168.63 -493.436 0.413176 0.430111 0.788644 0.149434 
7 1 495.225 167.503 -498.818 0.394463 0.50209 0.725061 0.258053 
1 1 -498.522 495.755 -499.075 0.609821 0.0203726 0.0726092 0.788943 
13 1 493.426 -168.517 -174.932 0.486206 0.434107 0.703542 0.283168 
15 1 158.911 -163.09 -171.956 0.29821 0.507176 0.521531 0.617939 
16 1 -497.325 159.235 -175.375 0.161047 0.692612 0.108022 0.694754 
12 1 169.579 496.812 -178.956 0.329684 0.263824 0.713205 0.559504 
11 1 -150.001 -495.762 -152.238 0.86201 0.314822 0.391133 0.0695807 
14 1 -165.854 -168.075 -162.823 0.388418 0.730322 0.323474 0.459485 
17 1 -172.621 170.242 -151.577 0.156177 0.773505 0.544575 0.284143 
18 1 159.8 180.141 -163.281 0.552315 0.404058 0.298867 0.665105 
10 1 484.043 494.704 -156.084 0.555819 0.541193 0.630714 0.0193715 
19 1 498.937 -494.953 170.146 0.804166 0.367566 0.46162 0.0715484 
20 1 -156.875 -479.623 182.002 0.641112 0.756579 0.127757 -0.0155624 
5 1 -181.963 -178.688 497.882 0.677665 0.036274 0.617994 0.39691 
6 1 163.718 -149.163 496.012 0.141731 0.646874 0.00126238 0.74931 
8 1 -166.353 163.727 496.038 0.778616 0.434205 0.432741 -0.134011 
9 1 162.045 151.384 493.464 0.363164 0.663391 0.336578 0.561016 
ITEM: TIMESTEP
70000
ITEM: NUMBER OF ATOMS
20
ITEM: BOX BOUNDS pp pp pp
-5.0000000000000000e+02 5.0000000000000000e+02
-5.0000000000000000e+02 5.0000000000000000e+02
-5.0000000000000000e+02 5.0000000000000000e+02
ITEM: ATOMS id type x y z c_q[1] c_q[2] c_q[3] c_q[4] 
2 1 -159.905 -487.079 -493.435 0.754399 0.323333 0.393635 0.413993 
3 1 160.874 -494.978 -488.038 0.286509 0.513615 0.125452 0.798983 
4 1 -492.53 -169.677 -490.267 0.40734 0.457192 0.77681 0.147026 
8 1 -165.251 164.99 -494.109 0.798269 0.414723 0.422388 -0.111172 
7 1 494.051 165.663 -497.163 0.327059 0.517006 0.750005 0.251456 
13 1 490.838 -170.731 -173.048 0.473563 0.424642 0.714754 0.290765 
15 1 155.637 -166.217 -171.38 0.307215 0.520667 0.501735 0.618697 
16 1 -490.58 163.23 -174.122 0.153859 0.719406 0.0917807 0.671087 
12 1 172.64 495.783 -176.74 0.375553 0.269132 0.708604 0.533299 
11 1 -149.288 -494.122 -151.719 0.842462 0.348511 0.407288 0.0539821 
14 1 -169.602 -173.025 -156.429 0.331082 0.734681 0.301589 0.509581 
17 1 -171.318 171.413 -155.859 0.138175 0.767721 0.533226 0.327386 
18 1 159.631 181.974 -160.377 0.566287 0.384083 0.275898 0.67504 
10 1 484.911 495.822 -155.459 0.532298 0.544989 0.647565 0.0174847 
19 1 -499.298 -497.829 165.706 0.772186 0.410373 0.471461 0.114222 
20 1 -159.279 -478.553 180.332 0.635946 0.76058 0.130688 -0.00338902 
5 1 -187.757 -174.24 495.795 0.688435 0.0422382 0.633408 0.350808 
6 1 158.25 -148.53 496.028 0.115352 0.663836 0.0106342 0.738852 
9 1 158.383 153.014 495.294 0.40567 0.629222 0.314543 0.583588 
1 1 -495.079 494.958 495.728 0.633008 -0.0439055 0.076153 0.769138 
ITEM: TIMESTEP
80000
ITEM: NUMBER OF ATOMS
20
ITEM: BOX BOUNDS pp pp pp
-5.0000000000000000e+02 5.0000000000000000e+02
-5.0000000000000000e+02 5.0000000000000000e+02
-5.0000000000000000e+02 5.0000000000000000e+02
ITEM: ATOMS id type x y z c_q[1] c_q[2] c_q[3] c_q[4] 
2 1 -161.839 -487.92 -496.209 0.763465 0.344691 0.38654 0.385871 
3 1 160.058 -496.691 -482.398 0.304069 0.503524 0.0835055 0.804383 
4 1 -498.075 -170.011 -492.423 0.377924 0.461762 0.785613 0.163592 
8 1 -163.589 163.832 -494.976 0.793928 0.426048 0.412903 -0.132938 
7 1 491.703 165.593 -494.976 0.360459 0.551831 0.721151 0.213291 
13 1 491.987 -174.106 -169.105 0.501684 0.418231 0.703918 0.279097 
15 1 157.955 -163.858 -169.35 0.320409 0.512672 0.520927 0.602612 
16 1 -491.461 165.541 -171.479 0.150643 0.740851 0.0794156 0.649723 
12 1 174.787 497.117 -176.157 0.396029 0.320298 0.697694 0.503779 
11 1 -150.298 -490.433 -151.257 0.80894 0.374179 0.453226 0.0138461 
14 1 -168.881 -167.661 -156.177 0.298537 0.744026 0.322247 0.503446 
17 1 -167.692 166.621 -156.675 0.0968238 0.758116 0.548229 0.339603 
18 1 156.749 178.287 -163.854 0.544364 0.40502 0.30059 0.670278 
10 1 483.108 495.763 -154.243 0.527539 0.530942 0.663075 0.0116517 
19 1 496.746 -499.404 167.354 0.771755 0.391509 0.496076 0.0708753 
20 1 -162.4 -473.138 181.714 0.622641 0.769092 0.132121 -0.0579624 
5 1 -189.84 -177.758 496.052 0.681598 0.0490011 0.653126 0.326266 
6 1 159.083 -147.381 488.083 0.116213 0.62634 -0.0595427 0.768536 
9 1 157.444 152.67 494.086 0.399373 0.618514 0.341125 0.584445 
1 1 -494.35 496.399 500.003 0.686002 -0.0132723 0.0928389 0.721531 
ITEM: TIMESTEP
90000
ITEM: NUMBER OF ATOMS
20
ITEM: BOX BOUNDS pp pp pp
-5.0000000000000000e+02 5.0000000000000000e+02
-5.0000000000000000e+02 5.0000000000000000e+02
-5.0000000000000000e+02 5.0000000000000000e+02
ITEM: ATOMS id type x y z c_q[1] c_q[2] c_q[3] c_q[4] 
2 1 -164.039 -492.119 -494.988 0.726657 0.376066 0.408417 0.404647 
4 1 496.034 -167.506 -496.218 0.36187 0.447234 0.795894 0.188638 
8 1 -164.28 159.743 -492.491 0.769725 0.45493 0.422565 -0.148328 
7 1 493.192 164.423 -498.102 0.338867 0.512455 0.752096 0.238558 
1 1 -498.406 496.811 -494.733 0.707126 0.00796931 0.12103 0.696607 
3 1 157.31 497.778 -481.267 0.327137 0.4959 0.077253 0.800685 
13 1 492.42 -171.169 -172.099 0.503459 0.386247 0.730477 0.252479 
15 1 153.385 -165.823 -170.615 0.340305 0.489275 0.54271 0.591834 
16 1 -489.951 169.957 -168.059 0.149385 0.74408 0.0496625 0.649278 
12 1 172.796 497.608 -179.291 0.389144 0.331056 0.694271 0.506909 
11 1 -148.02 -492.111 -152.011 0.791634 0.366893 0.488088 -0.021772 
14 1 -168.287 -167.087 -158.225 0.337468 0.688591 0.289136 0.573026 
17 1 -168.421 161.139 -157.437 0.121427 0.732825 0.570916 0.349682 
18 1 160.966 179.37 -163.895 0.468007 0.422477 0.343567 0.69602 
10 1 482.32 496.485 -151.722 0.494623 0.542602 0.678914 0.00254388 
20 1 -167.284 -475.941 186.757 0.652 0.744651 0.111096 -0.0897179 
19 1 498.554 -499.565 169.012 0.762734 0.389045 0.509045 0.0880572 
5 1 -184.595 -178.901 497.805 0.710655 0.0107604 0.631359 0.310225 
6 1 160.667 -142.627 488.949 0.0855911 0.6776 -0.0898157 0.72489 
9 1 155.316 150.096 498.298 0.393743 0.616551 0.352015 0.583881 
ITEM: TIMESTEP
100000
ITEM: NUMBER OF ATOMS
20
ITEM: BOX BOUNDS pp pp pp
-5.0000000000000000e+02 5.0000000000000000e+02
-5.0000000000000000e+02 5.0000000000000000e+02
-5.0000000000000000e+02 5.0000000000000000e+02
ITEM: ATOMS id type x y z c_q[1] c_q[2] c_q[3] c_q[4] 
2 1 -166.796 -496.447 -492.506 0.745077 0.357959 0.378284 0.416685 
4 1 495.392 -165.843 -494.807 0.385864 0.476233 0.773591 0.160832 
8 1 -168.297 161.384 -493.661 0.770899 0.445885 0.435958 -0.129777 
7 1 493.847 169.441 -496.274 0.337345 0.548451 0.722943 0.250505 
1 1 -496.291 499.582 -497.987 0.689432 -0.0263783 0.128827 0.712314 
3 1 155.074 494.808 -483.686 0.32654 0.490234 0.0935583 0.802676 
12 1 173.867 -498.49 -185.526 0.370192 0.333664 0.707311 0.501335 
13 1 494.063 -171.328 -167.55 0.535238 0.40633 0.696997 0.250222 
15 1 157.055 -166.337 -167.553 0.318201 0.484302 0.558606 0.59343 
16 1 -484.779 172.85 -166.881 0.155454 0.739878 0.0152209 0.654357 
11 1 -151.053 -495.314 -153.231 0.788372 0.369869 0.491222 -0.0191729 
14 1 -169.113 -165.517 -163.095 0.291923 0.700612 0.332113 0.560022 
17 1 -171.349 158.691 -157.746 0.147438 0.733107 0.544894 0.37935 
18 1 164.007 180.748 -165.33 0.470518 0.459132 0.351625 0.666461 
10 1 479.847 494.615 -148.879 0.485843 0.540915 0.686264 0.0202344 
19 1 498.141 499.422 165.868 0.752127 0.373882 0.538306 0.0688763 
20 1 -164.518 -476.931 187.165 0.643806 0.754993 0.104257 -0.0680464 
5 1 -183.517 -179.8 493.517 0.719326 -0.0151029 0.644702 0.258266 
6 1 161.6 -143.492 488.005 0.115584 0.688646 -0.0817382 0.711144 
9 1 152.854 143.106 496.332 0.327515 0.624349 0.39968 0.585814 
ITEM: TIMESTEP
110000
ITEM: NUMBER OF ATOMS
20
ITEM: BOX BOUNDS pp pp pp
-5.0000000000000000e+02 5.0000000000000000e+02
-5.0000000000000000e+02 5.0000000000000000e+02
-5.0000000000000000e+02 5.0000000000000000e+02
ITEM: ATOMS id type x y z c_q[1] c_q[2] c_q[3] c_q[4] 
2 1 -158.104 -499.097 -497.604 0.744549 0.363953 0.397433 0.393995 
4 1 499.6 -164.668 -497.473 0.390568 0.479287 0.774245 0.135226 
8 1 -175.014 160.397 -499.348 0.754986 0.455357 0.453893 -0.128945 
7 1 496.524 171.949 -494.632 0.391044 0.536029 0.705645 0.248642 
1 1 -498.947 499.663 -495.92 0.73448 -0.0241281 0.152406 0.660854 
3 1 157.576 494.47 -481.588 0.32143 0.521347 0.105328 0.783445 
12 1 173.417 -497.365 -180.99 0.330469 0.352131 0.727067 0.488024 
15 1 160.896 -167.604 -170.883 0.25201 0.506305 0.548757 0.61564 
13 1 494.693 -170.493 -173.728 0.519408 0.374067 0.717416 0.274962 
14 1 -170.626 -162.448 -168.528 0.282361 0.685172 0.298617 0.601365 
16 1 -478.163 172.322 -174.965 0.200761 0.729267 0.037976 0.653011 
11 1 -156.537 -493.654 -154.554 0.779176 0.364808 0.508571 -0.0339789 
17 1 -172.812 154.315 -157.636 0.190902 0.730624 0.533989 0.380265 
18 1 167.211 176.191 -162.007 0.460445 0.478808 0.363569 0.653109 
10 1 477.626 492.523 -149.897 0.483329 0.523256 0.701823 0.00640961 
20 1 -165.737 -475.312 189.724 0.658067 0.737783 0.143833 -0.0440093 
19 1 492.244 495.195 171.74 0.728574 0.328805 0.598743 0.0507338 
5 1 -187.358 -176.798 498.26 0.733288 -0.0456409 0.622211 0.270295 
6 1 161.357 -146.296 486.07 0.0661743 0.697365 -0.0844403 0.708642 
9 1 156.639 148.803 495.723 0.364607 0.578752 0.425351 0.592608 
ITEM: TIMESTEP
120000
ITEM: NUMBER OF ATOMS
20
ITEM: BOX BOUNDS pp pp pp
-5.0000000000000000e+02 5.0000000000000000e+02
-5.0000000000000000e+02 5.0000000000000000e+02
-5.0000000000000000e+02 5.0000000000000000e+02
ITEM: ATOMS id type x y z c_q[1] c_q[2] c_q[3] c_q[4] 
1 1 498.06 -493.564 -491.651 0.720391 -0.0220848 0.199293 0.663951 
4 1 497.568 -160.761 -496.77 0.341745 0.467056 0.802125 0.14719 
8 1 -171.677 159.431 -494.772 0.770938 0.465916 0.422734 -0.0993607 
7 1 498.415 169.785 -496.404 0.372206 0.514867 0.717382 0.285899 
2 1 -157.319 494.162 -495.231 0.733211 0.35274 0.389765 0.431347 
3 1 159.109 487.324 -477.908 0.325303 0.457445 0.0978768 0.821792 
12 1 173.32 -498.76 -188.417 0.283781 0.376193 0.748574 0.466459 
14 1 -167.48 -163.609 -170.762 0.223401 0.676347 0.311686 0.628887 
15 1 159.243 -162.221 -170.355 0.244406 0.521559 0.549285 0.605415 
13 1 497.448 -168.007 -176.741 0.534928 0.363235 0.71005 0.27882 
16 1 -478.467 173.965 -173.625 0.173077 0.726482 0.0439059 0.663581 
11 1 -154.86 -493.186 -153.973 0.77548 0.391272 0.493908 -0.0398957 
17 1 -177.101 154.405 -155.125 0.228137 0.712769 0.531947 0.396164 
18 1 169.16 170.928 -159.771 0.407155 0.527994 0.367259 0.648512 
10 1 467.377 490.217 -151.621 0.471411 0.486186 0.735781 0.00464506 
20 1 -160.287 -472.824 193.632 0.629915 0.764621 0.125751 -0.0524354 
19 1 489.93 492.378 169.503 0.739099 0.316486 0.592377 0.0515609 
5 1 -186.089 -171.404 498.018 0.72985 -0.0502683 0.605561 0.31319 
6 1 159.857 -148.037 481.391 0.020551 0.735784 -0.110123 0.667887 
9 1 155.917 150.824 494.262 0.349673 0.549631 0.436031 0.620896 
ITEM: TIMESTEP
130000
ITEM: NUMBER OF ATOMS
20
ITEM: BOX BOUNDS pp pp pp
-5.0000000000000000e+02 5.0000000000000000e+02
-5.0000000000000000e+02 5.0000000000000000e+02
-5.0000000000000000e+02 5.0000000000000000e+02
ITEM: ATOMS id type x y z c_q[1] c_q[2] c_q[3] c_q[4] 
1 1 494.542 -495.86 -489.672 0.751816 -0.0540624 0.182155 0.631403 
8 1 -173.141 165.147 -490.915 0.769312 0.433066 0.463131 -0.0782464 
9 1 156.589 148.793 -499.036 0.366694 0.605138 0.451608 0.543501 
7 1 499.512 172.493 -494.382 0.344926 0.51503 0.742463 0.254006 
2 1 -161.739 491.686 -495.889 0.719536 0.312769 0.424206 0.452209 
3 1 156.554 486.967 -477.132 0.340981 0.464001 0.10946 0.810218 
12 1 174.721 -498.515 -191.565 0.285842 0.401903 0.712143 0.49962 
13 1 497.246 -169.346 -180.082 0.541456 0.331126 0.703153 0.320557 
14 1 -165.024 -164.487 -167.438 0.271759 0.689069 0.264186 0.617686 
15 1 162.756 -166.009 -168.636 0.254713 0.495522 0.536993 0.633417 
16 1 -475.445 168.442 -172.32 0.149643 0.761992 0.0670281 0.626485 
11 1 -152.404 -497.012 -152.633 0.773531 0.392247 0.495001 -0.0525807 
17 1 -178.292 155.195 -162.323 0.249572 0.733925 0.467563 0.424796 
18 1 166.094 167.11 -163.45 0.415046 0.517438 0.367738 0.651739 
10 1 466.126 495.028 -149.379 0.516704 0.461192 0.721318 0.00432254 
20 1 -163.955 -477.783 190.475 0.638007 0.753475 0.138907 -0.0769865 
19 1 491.183 494.577 168.934 0.682994 0.324996 0.651707 0.0563398 
5 1 -184.808 -169.317 494.938 0.745321 -0.0752628 0.591953 0.297363 
4 1 -499.421 -159.395 498.615 0.326687 0.531193 0.771837 0.124001 
6 1 158.87 -149.236 480.595 0.0209544 0.703989 -0.135594 0.696831 
ITEM: TIMESTEP
140000
ITEM: NUMBER OF ATOMS
20
ITEM: BOX BOUNDS pp pp pp
-5.0000000000000000e+02 5.0000000000000000e+02
-5.0000000000000000e+02 5.0000000000000000e+02
-5.0000000000000000e+02 5.0000000000000000e+02
ITEM: ATOMS id type x y z c_q[1] c_q[2] c_q[3] c_q[4] 
1 1 494.582 -496.137 -488.029 0.738908 -0.0216121 0.207791 0.640602 
8 1 -171.012 159.167 -491.176 0.751889 0.447424 0.476127 -0.0881919 
9 1 151.052 147.415 -497.037 0.364234 0.614547 0.478274 0.510803 
7 1 496.212 171.368 -497.174 0.31589 0.530862 0.753415 0.225311 
2 1 -158.889 487.101 -494.143 0.725208 0.316289 0.437391 0.427462 
3 1 159.544 488.881 -473.458 0.327826 0.44379 0.136597 0.822753 
12 1 173.875 -498.265 -189.127 0.297167 0.445419 0.698372 0.474942 
14 1 -168.103 -161.135 -169.615 0.240042 0.650316 0.262252 0.671336 
15 1 167.194 -162.476 -165.588 0.280644 0.470802 0.527107 0.649417 
13 1 498.234 -164.876 -178.769 0.541324 0.334103 0.704552 0.314563 
16 1 -477.482 170.37 -170.736 0.115082 0.75309 0.117744 0.636983 
11 1 -152.425 -496.165 -153.054 0.776768 0.40343 0.478594 -0.0694485 
17 1 -178.011 152.918 -162.422 0.281286 0.687479 0.479966 0.46678 
18 1 161.611 163.978 -162.449 0.452727 0.57936 0.352914 0.578646 
10 1 470.556 494.169 -141.562 0.572728 0.411709 0.708833 -0.00587551 
20 1 -168.599 -475.931 194.336 0.643036 0.744717 0.159602 -0.0801784 
19 1 489.629 494.135 175.288 0.698338 0.233216 0.66439 0.128531 
4 1 -495.016 -164.746 497.754 0.330902 0.518749 0.777786 0.128268 
5 1 -185.639 -167.61 492.741 0.751045 -0.092857 0.585034 0.291621 
6 1 158.716 -149.986 477.113 0.0256967 0.708052 -0.177038 0.683125 
ITEM: TIMESTEP
150000
ITEM: NUMBER OF ATOMS
20
ITEM: BOX BOUNDS pp pp pp
-5.0000000000000000e+02 5.0000000000000000e+02
-5.0000000000000000e+02 5.0000000000000000e+02
-5.0000000000000000e+02 5.0000000000000000e+02
ITEM: ATOMS id type x y z c_q[1] c_q[2] c_q[3] c_q[4] 
1 1 490.268 -499.837 -486.548 0.710668 -0.0620902 0.222047 0.664673 
8 1 -172.689 162.268 -488.806 0.749356 0.464817 0.452496 -0.132883 
9 1 154.407 146.21 -497.5 0.374151 0.616164 0.476203 0.503571 
7 1 496.466 169.493 -496.14 0.340981 0.48897 0.76928 0.229889 
2 1 -164.879 487.38 -488.401 0.714014 0.30003 0.474958 0.41783 
3 1 155.608 482.23 -470.389 0.363594 0.489689 0.124292 0.782659 
12 1 175.405 -494.848 -184.928 0.306715 0.367114 0.70591 0.522345 
14 1 -171.995 -152.922 -171.19 0.21178 0.647016 0.291536 0.671957 
13 1 -500.292 -163.81 -181.324 0.566382 0.310208 0.70041 0.303989 
16 1 -478.215 169.935 -172.081 0.111004 0.770331 0.096787 0.620404 
11 1 -152.879 -497.853 -153.915 0.774024 0.416096 0.472278 -0.0685934 
15 1 168.948 -163.48 -161.951 0.27975 0.512213 0.536156 0.609848 
17 1 -180.136 149.172 -158.831 0.262938 0.702646 0.47408 0.460869 
18 1 163.191 163.73 -162.361 0.49396 0.573109 0.329961 0.564513 
10 1 468.24 492.775 -140.898 0.562943 0.418587 0.712159 -0.0266287 
20 1 -168.388 -473.254 188.792 0.629673 0.760722 0.146738 -0.0572884 
19 1 487.615 497.342 172.906 0.726112 0.220783 0.64132 0.112809 
4 1 -495.195 -166.523 495.848 0.28013 0.503936 0.809558 0.110416 
5 1 -183.911 -164.308 495.459 0.764985 -0.0728814 0.597732 0.22848 
6 1 157.331 -147.647 471.532 0.105472 0.723989 -0.156272 0.663547 
ITEM: TIMESTEP
160000
ITEM: NUMBER OF ATOMS
20
ITEM: BOX BOUNDS pp pp pp
-5.0000000000000000e+02 5.0000000000000000e+02
-5.0000000000000000e+02 5.0000000000000000e+02
-5.0000000000000000e+02 5.0000000000000000e+02
ITEM: ATOMS id type x y z c_q[1] c_q[2] c_q[3] c_q[4] 
1 1 489.181 -495.954 -489.084 0.699573 -0.1305 0.231223 0.663403 
8 1 -166.716 156.165 -485.168 0.749514 0.495698 0.403909 -0.171377 
9 1 150.449 144.532 -494.278 0.302535 0.573461 0.535701 0.540961 
7 1 495.112 169.877 -497.499 0.319989 0.469565 0.781433 0.257835 
2 1 -167.808 483.996 -492.989 0.714896 0.241274 0.466867 0.461243 
3 1 155.65 486.453 -470.224 0.349537 0.458916 0.12226 0.807634 
12 1 170.486 -497.147 -187.31 0.334063 0.343592 0.688404 0.544469 
14 1 -168.32 -152.538 -168.471 0.222667 0.648251 0.304481 0.661424 
13 1 497.997 -162.998 -187.42 0.581938 0.290694 0.690789 0.315685 
16 1 -473.358 170.456 -172.892 0.0973726 0.771053 0.0890205 0.622954 
11 1 -155.726 -493.182 -155.369 0.789364 0.438119 0.419993 -0.0925389 
15 1 168.761 -170.431 -161.497 0.27078 0.499781 0.531662 0.62788 
17 1 -177.916 151.056 -155.52 0.291746 0.713623 0.453917 0.44675 
18 1 168.648 163.116 -156.597 0.487791 0.592168 0.346071 0.54003 
10 1 469.979 494.931 -143 0.560768 0.396129 0.726783 -0.0201665 
19 1 490.62 497.647 166.348 0.74971 0.168782 0.6241 0.141233 
20 1 -169.651 -467.294 188.99 0.637676 0.762634 0.102237 -0.0361318 
4 1 -491.988 -172.017 494.811 0.258816 0.542313 0.782188 0.164598 
5 1 -186.085 -167.314 496.496 0.761368 -0.0753061 0.61124 0.202566 
6 1 154.907 -151.609 475.097 0.142914 0.737708 -0.172302 0.636925 
ITEM: TIMESTEP
170000
ITEM: NUMBER OF ATOMS
20
ITEM: BOX BOUNDS pp pp pp
-5.0000000000000000e+02 5.0000000000000000e+02
-5.0000000000000000e+02 5.0000000000000000e+02
-5.0000000000000000e+02 5.0000000000000000e+02
ITEM: ATOMS id type x y z c_q[1] c_q[2] c_q[3] c_q[4] 
1 1 492.331 -496.425 -492.393 0.63363 -0.122233 0.224288 0.730251 
8 1 -168.318 155.661 -487.082 0.741729 0.485386 0.42865 -0.174636 
9 1 152.892 143.849 -496.006 0.283393 0.575299 0.548859 0.536165 
7 1 497.761 164.414 -500.045 0.369197 0.454729 0.777485 0.228981 
2 1 -167.829 485.17 -495.296 0.715318 0.281025 0.467774 0.4365 
3 1 153.241 489.436 -469.383 0.335287 0.49199 0.12792 0.793199 
12 1 173.801 -498.208 -190.767 0.336748 0.329991 0.717365 0.512928 
13 1 -496.437 -161.88 -194.061 0.560944 0.313181 0.682286 0.348921 
14 1 -163.929 -155.556 -168.03 0.228857 0.666755 0.29034 0.647121 
16 1 -472.358 170.373 -170.44 0.0890271 0.789252 0.0546661 0.605118 
11 1 -151.097 -489.532 -150.801 0.775544 0.443547 0.436179 -0.107452 
15 1 173.46 -172.181 -161.615 0.322789 0.508241 0.514301 0.610732 
17 1 -179.827 148.221 -152.437 0.289672 0.718582 0.459226 0.434559 
18 1 168.251 164.347 -160.97 0.494907 0.602425 0.319047 0.53885 
10 1 473.449 491.022 -145.17 0.580798 0.395272 0.70988 -0.050042 
20 1 -167.306 -464.965 179.013 0.632273 0.768883 0.0944482 -0.0114029 
19 1 486.895 498.099 167.043 0.762081 0.115165 0.618379 0.153546 
4 1 -490.907 -171.548 494.773 0.291225 0.500189 0.801576 0.149916 
5 1 -179.059 -163.81 499.551 0.769715 -0.0174658 0.584648 0.255774 
6 1 149.558 -153.758 473.954 0.161025 0.780451 -0.134316 0.589005 
ITEM: TIMESTEP
180000
ITEM: NUMBER OF ATOMS
20
ITEM: BOX BOUNDS pp pp pp
-5.0000000000000000e+02 5.0000000000000000e+02
-5.0000000000000000e+02 5.0000000000000000e+02
-5.0000000000000000e+02 5.0000000000000000e+02
ITEM: ATOMS id type x y z c_q[1] c_q[2] c_q[3] c_q[4] 
1 1 489.96 -497.504 -496.048 0.616725 -0.137597 0.245263 0.73523 
5 1 -176.361 -161.989 -498.521 0.746416 0.00521352 0.603673 0.280028 
8 1 -175.963 159.433 -486.515 0.76365 0.458222 0.409907 -0.197098 
9 1 155.087 140.723 -497.362 0.280246 0.569485 0.550902 0.5419 
7 1 497.828 161.228 -497.415 0.343233 0.433567 0.785966 0.276528 
2 1 -165.701 485.021 -493.858 0.686486 0.293103 0.464077 0.476927 
3 1 149.913 490.543 -469.077 0.365719 0.520683 0.0848708 0.76677 
12 1 168.293 -496.771 -189.866 0.339487 0.317102 0.723631 0.510443 
13 1 -490.191 -164.192 -193.172 0.595015 0.328633 0.641008 0.356464 
14 1 -164.503 -159.684 -167.968 0.195341 0.684213 0.331777 0.61937 
11 1 -153.181 -489.327 -158.079 0.775406 0.400384 0.4762 -0.108038 
15 1 176.824 -170.62 -166.283 0.332555 0.517287 0.500386 0.609455 