ITEM: TIMESTEP
0
ITEM: NUMBER OF ATOMS
10
ITEM: BOX BOUNDS
-500.000000 500.000000
-500.000000 500.000000
-500.000000 500.000000
ITEM: ATOMS id type x y z c_q[1] c_q[2] c_q[3] c_q[4]
1 1 -500.000000 -500.000000 -500.000000 0.463238 0.566087 0.327338 0.598169
2 1 -166.666667 -500.000000 -500.000000 0.467527 0.485639 0.244729 0.696908
3 1 166.666667 -500.000000 -500.000000 0.107576 0.943306 0.209416 0.233977
4 1 -500.000000 -166.666667 -500.000000 0.076111 0.927450 0.077421 0.357840
5 1 -166.666667 -166.666667 -500.000000 0.349278 0.053100 0.558998 0.750138
6 1 166.666667 -166.666667 -500.000000 0.624075 0.767522 0.061388 0.132938
7 1 -500.000000 166.666667 -500.000000 0.905771 0.172085 0.346361 0.173203
8 1 -166.666667 166.666667 -500.000000 0.036562 0.777617 0.583647 0.230935
9 1 166.666667 166.666667 -500.000000 0.059586 0.254136 0.916081 0.304400
10 1 -500.000000 -500.000000 -166.666667 0.604989 0.411064 0.378663 0.567124
