LAMMPS data file

10 atoms
10 ellipsoids
0 bonds
0 angles
0 dihedrals

1 atom types
0 bond types
0 angle types
0 dihedral types

-500.000000 500.000000 xlo xhi
-500.000000 500.000000 ylo yhi
-500.000000 500.000000 zlo zhi

Masses

1 203166.000000

Atoms

1 1 -500.000000 -500.000000 -500.000000 1 1.000000 3 0.000000
2 1 -166.666667 -500.000000 -500.000000 1 1.000000 4 0.000000
3 1 166.666667 -500.000000 -500.000000 1 1.000000 5 0.000000
4 1 -500.000000 -166.666667 -500.000000 1 1.000000 6 0.000000
5 1 -166.666667 -166.666667 -500.000000 1 1.000000 7 0.000000
6 1 166.666667 -166.666667 -500.000000 1 1.000000 8 0.000000
7 1 -500.000000 166.666667 -500.000000 1 1.000000 9 0.000000
8 1 -166.666667 166.666667 -500.000000 1 1.000000 10 0.000000
9 1 166.666667 166.666667 -500.000000 1 1.000000 11 0.000000
10 1 -500.000000 -500.000000 -166.666667 1 1.000000 12 0.000000

Ellipsoids

1 55.000000 110.000000 110.000000 0.463238 0.566087 0.327338 0.598169
2 55.000000 110.000000 110.000000 0.467527 0.485639 0.244729 0.696908
3 55.000000 110.000000 110.000000 0.107576 0.943306 0.209416 0.233977
4 55.000000 110.000000 110.000000 0.076111 0.927450 0.077421 0.357840
5 55.000000 110.000000 110.000000 0.349278 0.053100 0.558998 0.750138
6 55.000000 110.000000 110.000000 0.624075 0.767522 0.061388 0.132938
7 55.000000 110.000000 110.000000 0.905771 0.172085 0.346361 0.173203
8 55.000000 110.000000 110.000000 0.036562 0.777617 0.583647 0.230935
9 55.000000 110.000000 110.000000 0.059586 0.254136 0.916081 0.304400
10 55.000000 110.000000 110.000000 0.604989 0.411064 0.378663 0.567124




