ITEM: TIMESTEP
0
ITEM: NUMBER OF ATOMS
10
ITEM: BOX BOUNDS pp pp pp
-5.0000000000000000e+02 5.0000000000000000e+02
-5.0000000000000000e+02 5.0000000000000000e+02
-5.0000000000000000e+02 5.0000000000000000e+02
ITEM: ATOMS id type x y z c_q[1] c_q[2] c_q[3] c_q[4] 
1 1 -500 -500 -500 0.463238 0.566087 0.327338 0.598169 
2 1 -166.667 -500 -500 0.467527 0.485639 0.244729 0.696908 
3 1 166.667 -500 -500 0.107576 0.943306 0.209416 0.233977 
4 1 -500 -166.667 -500 0.076111 0.92745 0.077421 0.35784 
5 1 -166.667 -166.667 -500 0.349278 0.0531 0.558998 0.750138 
6 1 166.667 -166.667 -500 0.624075 0.767522 0.061388 0.132938 
7 1 -500 166.667 -500 0.905771 0.172085 0.346361 0.173203 
8 1 -166.667 166.667 -500 0.036562 0.777617 0.583647 0.230935 
9 1 166.667 166.667 -500 0.059586 0.254136 0.916081 0.3044 
10 1 -500 -500 -166.667 0.604989 0.411064 0.378663 0.567124 
ITEM: TIMESTEP
10000
ITEM: NUMBER OF ATOMS
10
ITEM: BOX BOUNDS pp pp pp
-5.0000000000000000e+02 5.0000000000000000e+02
-5.0000000000000000e+02 5.0000000000000000e+02
-5.0000000000000000e+02 5.0000000000000000e+02
ITEM: ATOMS id type x y z c_q[1] c_q[2] c_q[3] c_q[4] 
4 1 499.191 -171.634 -496.895 0.0757693 0.917872 0.119613 0.370759 
8 1 -164.896 165.459 -497.779 0.0287011 0.792843 0.568263 0.218298 
7 1 -494.994 171.383 -495.22 0.906833 0.16763 0.34947 0.165605 
1 1 -500.36 496.389 -497.601 0.446632 0.601164 0.37916 0.54347 
2 1 -167.208 496.766 -499.388 0.469023 0.493235 0.216623 0.699865 
3 1 166.419 494.315 -493.687 0.130934 0.936119 0.215758 0.244921 
10 1 499.413 -495.408 -170.766 0.597551 0.425044 0.379373 0.564222 
6 1 163.742 -167.448 498.693 0.612186 0.771743 0.0491923 0.164988 
5 1 -161.873 -165.837 494.894 0.314779 0.0831356 0.551417 0.768077 
9 1 166.39 175.776 499.248 0.00179006 0.227946 0.927292 0.29693 
ITEM: TIMESTEP
20000
ITEM: NUMBER OF ATOMS
10
ITEM: BOX BOUNDS pp pp pp
-5.0000000000000000e+02 5.0000000000000000e+02
-5.0000000000000000e+02 5.0000000000000000e+02
-5.0000000000000000e+02 5.0000000000000000e+02
ITEM: ATOMS id type x y z c_q[1] c_q[2] c_q[3] c_q[4] 
4 1 497.483 -172.199 -495.813 0.0459454 0.921664 0.158373 0.351201 
8 1 -168.944 162.597 -491.226 0.0185423 0.813111 0.539971 0.216653 
7 1 -495.754 170.021 -498.437 0.903721 0.179561 0.370861 0.116229 
9 1 168.273 177.564 -497.863 0.0539587 0.251012 0.92554 0.27831 
3 1 168.876 493.354 -489.237 0.114769 0.944122 0.205508 0.230711 
1 1 497.16 -499.709 -497.939 0.452928 0.619845 0.364653 0.526951 
10 1 495.779 -492.016 -170.907 0.603964 0.386617 0.42015 0.556084 
5 1 -165.624 -168.816 494.801 0.3365 0.0911902 0.544134 0.763132 
6 1 163.103 -164.377 496.401 0.588387 0.787556 0.0528836 0.175383 
2 1 -168.067 499.416 493.675 0.476196 0.468389 0.251727 0.700345 
ITEM: TIMESTEP
30000
ITEM: NUMBER OF ATOMS
10
ITEM: BOX BOUNDS pp pp pp
-5.0000000000000000e+02 5.0000000000000000e+02
-5.0000000000000000e+02 5.0000000000000000e+02
-5.0000000000000000e+02 5.0000000000000000e+02
ITEM: ATOMS id type x y z c_q[1] c_q[2] c_q[3] c_q[4] 
4 1 -499.311 -170.453 -493.647 0.0170883 0.897914 0.159794 0.409785 
6 1 166.301 -164.694 -498.5 0.553873 0.813038 0.0607888 0.168816 
8 1 -173.639 157.348 -489.26 0.00040622 0.828578 0.515527 0.218379 
3 1 164.508 491.266 -490.893 0.0698609 0.952775 0.14543 0.257274 
1 1 497.338 497.218 -495.221 0.438945 0.550035 0.436073 0.560918 
10 1 -499.648 -491.485 -169.761 0.6205 0.401079 0.38838 0.550706 
2 1 -171.907 -499.59 492.77 0.474267 0.458855 0.259033 0.705284 
5 1 -161.16 -174.78 493.731 0.37378 0.100385 0.511473 0.767207 
7 1 -495.713 173.235 -499.664 0.895695 0.205575 0.382187 0.0969644 
9 1 173.065 180.311 494.419 0.0731261 0.271958 0.920839 0.269716 
ITEM: TIMESTEP
40000
ITEM: NUMBER OF ATOMS
10
ITEM: BOX BOUNDS pp pp pp
-5.0000000000000000e+02 5.0000000000000000e+02
-5.0000000000000000e+02 5.0000000000000000e+02
-5.0000000000000000e+02 5.0000000000000000e+02
ITEM: ATOMS id type x y z c_q[1] c_q[2] c_q[3] c_q[4] 
4 1 499.259 -171.342 -494.27 0.0541755 0.89342 0.174939 0.410197 
8 1 -173.959 152.242 -487.206 -0.00498605 0.84258 0.485699 0.232662 
7 1 -496.265 172.538 499.297 0.907137 0.217973 0.35648 0.0501204 
3 1 166.903 491.568 -496.399 0.0544872 0.947379 0.133868 0.285627 
1 1 499.226 -500.461 -494.522 0.421665 0.509977 0.452439 0.597847 
10 1 -497.969 -490.295 -168.865 0.645424 0.436239 0.375681 0.501983 
2 1 -172.132 -496.978 499.002 0.528862 0.456643 0.267693 0.663418 
5 1 -161.836 -180.618 495.931 0.358574 0.0929891 0.51887 0.770423 
6 1 164.163 -165.394 498.405 0.552612 0.814882 0.0266168 0.172856 
9 1 175.878 181.33 496.891 0.0737621 0.319225 0.914027 0.239185 
ITEM: TIMESTEP
50000
ITEM: NUMBER OF ATOMS
10
ITEM: BOX BOUNDS pp pp pp
-5.0000000000000000e+02 5.0000000000000000e+02
-5.0000000000000000e+02 5.0000000000000000e+02
-5.0000000000000000e+02 5.0000000000000000e+02
ITEM: ATOMS id type x y z c_q[1] c_q[2] c_q[3] c_q[4] 
1 1 499.586 -496.379 -498.704 0.397337 0.5177 0.476102 0.589437 
2 1 -172.508 -497.111 499.528 0.507554 0.435185 0.249422 0.700565 
4 1 -496.607 -175.139 -492.663 0.0328908 0.880304 0.211976 0.423142 
8 1 -174.157 152.565 -485.798 -0.00624424 0.860658 0.449238 0.239611 
9 1 174.79 179.683 -499.042 0.0904349 0.341225 0.903773 0.242034 
3 1 166.14 492.099 -489.349 0.0652226 0.934396 0.182001 0.299208 
10 1 -498.636 -492.411 -169.285 0.648852 0.44885 0.373526 0.487856 
5 1 -164.119 -178.577 490.973 0.380515 0.120931 0.531772 0.746862 
6 1 167.019 -160.073 497.184 0.571815 0.803211 0.0374563 0.162715 
7 1 -496.901 172.77 498.405 0.909937 0.200804 0.35632 0.0687567 
ITEM: TIMESTEP
60000
ITEM: NUMBER OF ATOMS
10
ITEM: BOX BOUNDS pp pp pp
-5.0000000000000000e+02 5.0000000000000000e+02
-5.0000000000000000e+02 5.0000000000000000e+02
-5.0000000000000000e+02 5.0000000000000000e+02
ITEM: ATOMS id type x y z c_q[1] c_q[2] c_q[3] c_q[4] 
2 1 -168.798 -492.036 -495.675 0.500505 0.413504 0.291061 0.702704 
4 1 -494.263 -170.851 -488.595 0.029373 0.888131 0.179564 0.422039 
8 1 -173.403 153.497 -482.861 -0.0239599 0.84576 0.479445 0.232915 
7 1 -495.513 176.307 -499.397 0.914203 0.208309 0.330446 0.107911 
3 1 161.714 491.237 -486.794 0.0688617 0.941498 0.164522 0.285959 
10 1 -499.984 -487.457 -171.576 0.652393 0.430066 0.352379 0.515029 
1 1 495.31 -497.772 496.828 0.392512 0.489047 0.492967 0.603118 
5 1 -160.902 -175.114 487.352 0.328945 0.145037 0.536382 0.76358 
6 1 169.787 -164.54 497.448 0.557216 0.811622 0.0840547 0.153997 
9 1 180.867 177.876 499.874 0.0848612 0.293352 0.918329 0.251824 
ITEM: TIMESTEP
70000
ITEM: NUMBER OF ATOMS
10
ITEM: BOX BOUNDS pp pp pp
-5.0000000000000000e+02 5.0000000000000000e+02
-5.0000000000000000e+02 5.0000000000000000e+02
-5.0000000000000000e+02 5.0000000000000000e+02
ITEM: ATOMS id type x y z c_q[1] c_q[2] c_q[3] c_q[4] 
2 1 -160.968 -487.282 -496.073 0.510881 0.451387 0.301425 0.666628 
4 1 -493.582 -170.541 -489.369 0.0369212 0.872324 0.20219 0.443629 
8 1 -171.002 150.956 -481.799 -0.0624594 0.806116 0.530788 0.254048 
9 1 178.663 176.036 -496.663 0.106403 0.258399 0.931837 0.231493 
3 1 163.628 493.113 -485.443 0.0591968 0.941364 0.21412 0.253935 
10 1 -496.168 -484.861 -176.229 0.627092 0.429812 0.347653 0.548776 
1 1 -499.06 -498.631 491.959 0.38514 0.529487 0.455934 0.602856 
5 1 -157.948 -177.554 488.135 0.329508 0.177576 0.507977 0.77579 
6 1 168.178 -169.368 497.959 0.58488 0.79121 0.1179 0.134175 
7 1 -492.483 178.274 491.495 0.921212 0.197695 0.303903 0.141168 
ITEM: TIMESTEP
80000
ITEM: NUMBER OF ATOMS
10
ITEM: BOX BOUNDS pp pp pp
-5.0000000000000000e+02 5.0000000000000000e+02
-5.0000000000000000e+02 5.0000000000000000e+02
-5.0000000000000000e+02 5.0000000000000000e+02
ITEM: ATOMS id type x y z c_q[1] c_q[2] c_q[3] c_q[4] 
2 1 -162.991 -490.794 -494.669 0.508417 0.448114 0.250934 0.691186 
4 1 -489.904 -167.16 -490.763 0.0103678 0.858961 0.18425 0.477629 
6 1 168.028 -172.964 499.843 0.598759 0.785807 0.0322232 0.151515 
8 1 -169.801 147.376 -486.433 -0.0751185 0.792763 0.560086 0.228448 
9 1 181.111 178.321 -496.966 0.114761 0.273934 0.927871 0.225489 
3 1 161.325 494.924 -481.479 0.0722867 0.947631 0.213135 0.226593 
10 1 -488.825 -487.352 -179.337 0.613459 0.451305 0.375996 0.527843 
1 1 496.879 -497.864 487.234 0.371273 0.51704 0.447066 0.628457 
5 1 -155.744 -178.357 488.562 0.300568 0.187457 0.518607 0.778181 
7 1 -486.69 178.35 488.819 0.931294 0.168382 0.275492 0.168652 
ITEM: TIMESTEP
90000
ITEM: NUMBER OF ATOMS
10
ITEM: BOX BOUNDS pp pp pp
-5.0000000000000000e+02 5.0000000000000000e+02
-5.0000000000000000e+02 5.0000000000000000e+02
-5.0000000000000000e+02 5.0000000000000000e+02
ITEM: ATOMS id type x y z c_q[1] c_q[2] c_q[3] c_q[4] 
2 1 -163.399 -490.953 499.409 0.48824 0.460566 0.275929 0.688014 
4 1 -490.756 -164.981 -484.63 -0.0282034 0.865958 0.236986 0.439499 
8 1 -172.889 148.809 -490.131 -0.0788084 0.811111 0.542343 0.204333 
9 1 180.493 175.126 -498.924 0.0846931 0.262804 0.9193 0.280443 
3 1 160.291 494.302 -481.914 0.0852961 0.95094 0.204569 0.215848 
10 1 -488.072 -486.262 -182.19 0.596308 0.400862 0.36857 0.589817 
5 1 -158.332 -179.755 482.785 0.286804 0.175603 0.536002 0.774344 
6 1 166.958 -168.159 497.94 0.614013 0.77793 0.041355 0.126898 
7 1 -484.881 171.976 488.663 0.927225 0.185405 0.276052 0.172262 
1 1 491.869 495.56 486.728 0.379116 0.512578 0.476617 0.605286 
ITEM: TIMESTEP
100000
ITEM: NUMBER OF ATOMS
10
ITEM: BOX BOUNDS pp pp pp
-5.0000000000000000e+02 5.0000000000000000e+02
-5.0000000000000000e+02 5.0000000000000000e+02
-5.0000000000000000e+02 5.0000000000000000e+02
ITEM: ATOMS id type x y z c_q[1] c_q[2] c_q[3] c_q[4] 
2 1 -165.64 -486.937 -493.334 0.49139 0.45518 0.271428 0.69114 
4 1 -487.594 -166.065 -491.492 -0.024312 0.877697 0.249555 0.408386 
6 1 165.444 -159.808 -498.423 0.605456 0.779549 0.0683197 0.145115 
8 1 -171.375 151.739 -492.052 -0.0847236 0.810724 0.544327 0.198133 
9 1 178.441 172.431 -497.113 0.105592 0.29476 0.912123 0.264572 
3 1 159.95 489.882 -482.714 0.0604653 0.953051 0.189707 0.228143 
10 1 -491.426 -484.931 -183.2 0.619304 0.387745 0.356508 0.582253 
5 1 -158.95 -179.998 484.282 0.219042 0.187785 0.528433 0.798446 
7 1 -481.679 173.319 490.157 0.916952 0.220873 0.30572 0.130193 
1 1 486.307 494.555 491.54 0.387479 0.535904 0.448765 0.601063 
ITEM: TIMESTEP
110000
ITEM: NUMBER OF ATOMS
10
ITEM: BOX BOUNDS pp pp pp
-5.0000000000000000e+02 5.0000000000000000e+02
-5.0000000000000000e+02 5.0000000000000000e+02
-5.0000000000000000e+02 5.0000000000000000e+02
ITEM: ATOMS id type x y z c_q[1] c_q[2] c_q[3] c_q[4] 
2 1 -164.172 -478.191 -489.057 0.449037 0.445747 0.283141 0.720768 
4 1 -485.083 -160.03 -492.342 -0.0170403 0.889226 0.234942 0.392159 
6 1 168.268 -164.569 -493.218 0.604631 0.777062 0.032905 0.171794 
8 1 -173.858 153.009 -497.097 -0.0574022 0.817126 0.533627 0.210364 
9 1 175.47 167.583 -500.076 0.112087 0.159292 0.943825 0.26694 
3 1 162.768 491.47 -480.174 0.0394012 0.969052 0.168915 0.17565 
10 1 -493.643 -487.272 -179.459 0.628925 0.374958 0.346706 0.58622 
5 1 -159.25 -182.502 483.452 0.265626 0.210295 0.512985 0.788711 
7 1 -485.248 173.793 485.781 0.910746 0.215567 0.32717 0.130506 
1 1 483.538 499.208 488.569 0.38343 0.529546 0.451595 0.607144 
ITEM: TIMESTEP
120000
ITEM: NUMBER OF ATOMS
10
ITEM: BOX BOUNDS pp pp pp
-5.0000000000000000e+02 5.0000000000000000e+02
-5.0000000000000000e+02 5.0000000000000000e+02
-5.0000000000000000e+02 5.0000000000000000e+02
ITEM: ATOMS id type x y z c_q[1] c_q[2] c_q[3] c_q[4] 
2 1 -168.942 -481.303 -487.396 0.488971 0.451308 0.287749 0.688788 
4 1 -485.751 -163.266 -491.27 -0.0628703 0.88345 0.22607 0.405532 
6 1 170.276 -161.324 -496.625 0.599972 0.778078 0.0280588 0.183961 
8 1 -173.968 149.389 -498.156 -0.037184 0.825092 0.544333 0.146772 
3 1 160.025 488.997 -482.135 0.0786066 0.961342 0.153456 0.214696 
10 1 -492.852 -486.711 -179.278 0.604139 0.365628 0.349205 0.615944 
5 1 -158.072 -180.984 479.604 0.281061 0.217565 0.523316 0.774474 
7 1 -481.915 171.902 484.161 0.923152 0.221844 0.302756 0.0831543 
9 1 176.579 167.376 500.15 0.0892396 0.173749 0.952944 0.23183 
1 1 484.449 500.12 490.295 0.358019 0.505791 0.471196 0.627672 
ITEM: TIMESTEP
130000
ITEM: NUMBER OF ATOMS
10
ITEM: BOX BOUNDS pp pp pp
-5.0000000000000000e+02 5.0000000000000000e+02
-5.0000000000000000e+02 5.0000000000000000e+02
-5.0000000000000000e+02 5.0000000000000000e+02
ITEM: ATOMS id type x y z c_q[1] c_q[2] c_q[3] c_q[4] 
2 1 -172.723 -478.807 -490.62 0.464475 0.453504 0.301103 0.698523 
4 1 -484.784 -161.837 -493.612 -0.053794 0.875076 0.204378 0.435405 
6 1 168.049 -164.186 -496.324 0.596009 0.787373 0.0328326 0.154076 
8 1 -175.026 152.814 -497.672 -0.0784847 0.812574 0.543031 0.196676 
3 1 160.523 492.99 -483.086 0.0744599 0.965533 0.14982 0.199387 
10 1 -488.731 -486.684 -172.617 0.610506 0.365242 0.327164 0.621968 
5 1 -152.763 -180.433 478.794 0.260406 0.17474 0.537767 0.782599 
7 1 -483.385 171.887 475.669 0.930985 0.16893 0.299792 0.121879 
9 1 178.335 170.629 498.256 0.0361255 0.223825 0.944016 0.239647 
1 1 491.938 497.789 488.325 0.362789 0.478335 0.499741 0.624371 
ITEM: TIMESTEP
140000
ITEM: NUMBER OF ATOMS
10
ITEM: BOX BOUNDS pp pp pp
-5.0000000000000000e+02 5.0000000000000000e+02
-5.0000000000000000e+02 5.0000000000000000e+02
-5.0000000000000000e+02 5.0000000000000000e+02
ITEM: ATOMS id type x y z c_q[1] c_q[2] c_q[3] c_q[4] 
2 1 -167.342 -482.045 -487.088 0.467451 0.4797 0.276363 0.689203 
6 1 169.28 -172.421 -494.929 0.574374 0.800992 0.0173204 0.167949 
4 1 -484.177 -163.851 -487.604 -0.103162 0.851247 0.248007 0.450809 
8 1 -173.546 151.684 -498.047 -0.117323 0.758849 0.598713 0.227874 
3 1 157.709 497.12 -487.347 0.0425252 0.962473 0.14335 0.226468 
10 1 -492.902 -487.015 -175.082 0.592525 0.307008 0.362648 0.650497 
5 1 -154.042 -176.664 474.258 0.266456 0.178333 0.537277 0.780084 
7 1 -483.811 171.741 475.183 0.918581 0.200388 0.330684 0.081868 
9 1 177.169 174.09 499.918 0.0894918 0.222046 0.931516 0.273796 
1 1 494.169 498.367 489.837 0.354716 0.49937 0.466952 0.637779 
ITEM: TIMESTEP
150000
ITEM: NUMBER OF ATOMS
10
ITEM: BOX BOUNDS pp pp pp
-5.0000000000000000e+02 5.0000000000000000e+02
-5.0000000000000000e+02 5.0000000000000000e+02
-5.0000000000000000e+02 5.0000000000000000e+02
ITEM: ATOMS id type x y z c_q[1] c_q[2] c_q[3] c_q[4] 
2 1 -171.079 -485.36 -487.481 0.494619 0.478262 0.262347 0.676603 
6 1 168.606 -174.144 -497.794 0.603276 0.783113 -0.0596877 0.13867 
4 1 -483.653 -159.486 -488.808 -0.127037 0.861385 0.259077 0.418039 
8 1 -176.554 150.882 -495.702 -0.0857014 0.778555 0.579723 0.224563 
3 1 158.363 497.523 -485.175 0.0503711 0.954807 0.11636 0.268825 
10 1 -491.905 -487.068 -171.966 0.587223 0.32028 0.360048 0.650349 
5 1 -154.669 -171.241 469.672 0.236854 0.154123 0.523252 0.803961 
7 1 -483.646 168.796 476.918 0.927631 0.16904 0.32934 0.0496161 
9 1 179.357 176.141 495.863 0.0641595 0.192527 0.94539 0.25506 
1 1 495.563 495.261 490.285 0.337027 0.46066 0.428392 0.700489 
ITEM: TIMESTEP
160000
ITEM: NUMBER OF ATOMS
10
ITEM: BOX BOUNDS pp pp pp
-5.0000000000000000e+02 5.0000000000000000e+02
-5.0000000000000000e+02 5.0000000000000000e+02
-5.0000000000000000e+02 5.0000000000000000e+02
ITEM: ATOMS id type x y z c_q[1] c_q[2] c_q[3] c_q[4] 
2 1 -169.477 -485.207 -487.349 0.487172 0.477834 0.222457 0.696312 
6 1 168.703 -176.367 -491.079 0.593534 0.794442 -0.0041597 0.12869 
4 1 -482.498 -158.015 -488.882 -0.101361 0.871346 0.22545 0.423856 
8 1 -181.535 150.719 -497.207 -0.0510876 0.789435 0.562825 0.239606 
3 1 157.093 495.607 -487.738 0.0582428 0.953076 0.0934545 0.281993 
10 1 -492.715 -488.09 -170.928 0.566483 0.33169 0.399972 0.63961 
5 1 -152.149 -166.744 471.029 0.30076 0.137874 0.505073 0.797142 
7 1 -486.084 169.667 479.111 0.933978 0.165653 0.314528 0.036277 
9 1 180.197 171.132 497.344 0.0224152 0.199215 0.947995 0.247217 
1 1 496.143 494.85 489.581 0.309296 0.418739 0.41802 0.744481 
ITEM: TIMESTEP
170000
ITEM: NUMBER OF ATOMS
10
ITEM: BOX BOUNDS pp pp pp
-5.0000000000000000e+02 5.0000000000000000e+02
-5.0000000000000000e+02 5.0000000000000000e+02
-5.0000000000000000e+02 5.0000000000000000e+02
ITEM: ATOMS id type x y z c_q[1] c_q[2] c_q[3] c_q[4] 
2 1 -169.911 -486.913 -486.731 0.456823 0.477296 0.218687 0.718107 
6 1 164.719 -177.378 -492.905 0.620102 0.768981 -0.0109932 0.154984 
4 1 -490.412 -159.226 -481.71 -0.0853353 0.863352 0.196053 0.457061 
8 1 -176.691 150.719 -491.973 -0.0748375 0.770426 0.599989 0.202129 
9 1 185.894 174.368 -497.424 0.0576909 0.198016 0.939829 0.272364 
3 1 153.847 494.557 -481.534 0.0509405 0.955488 0.0715405 0.281655 
10 1 -495.717 -488.824 -168.404 0.469222 0.33414 0.439443 0.689253 
5 1 -153.085 -171.857 473.547 0.353854 0.116916 0.442668 0.815575 
7 1 -486.602 169.49 477.667 0.907553 0.147285 0.384529 0.0824183 
1 1 498.858 495.379 488.135 0.286898 0.444865 0.446382 0.721476 
ITEM: TIMESTEP
180000
ITEM: NUMBER OF ATOMS
10
ITEM: BOX BOUNDS pp pp pp
-5.0000000000000000e+02 5.0000000000000000e+02
-5.0000000000000000e+02 5.0000000000000000e+02
-5.0000000000000000e+02 5.0000000000000000e+02
ITEM: ATOMS id type x y z c_q[1] c_q[2] c_q[3] c_q[4] 
2 1 -173.356 -486.614 -488.48 0.446177 0.46678 0.222131 0.730548 
6 1 163.355 -180.033 -488.903 0.624706 0.771709 0.0327225 0.114611 
4 1 -491.727 -158.139 -480.438 -0.0945234 0.835549 0.234726 0.487674 
8 1 -177.012 154.951 -483.755 -0.0727022 0.790242 0.571787 0.208066 
9 1 185.954 173.634 -488.508 -0.0209429 0.145199 0.943697 0.296503 
3 1 158.637 496.752 -486.196 0.0234377 0.948559 0.126008 0.289497 
10 1 -498.217 -487.47 -173.042 0.447285 0.329441 0.446359 0.701547 
5 1 -151.347 -173.09 478.741 0.36215 0.0913029 0.439497 0.816917 
7 1 -483.123 175.276 467.911 0.89054 0.159344 0.419115 0.0767467 
1 1 498.325 492.874 490.195 0.277844 0.432392 0.450473 0.730009 
ITEM: TIMESTEP
190000
ITEM: NUMBER OF ATOMS
10
ITEM: BOX BOUNDS pp pp pp
-5.0000000000000000e+02 5.0000000000000000e+02
-5.0000000000000000e+02 5.0000000000000000e+02
-5.0000000000000000e+02 5.0000000000000000e+02
ITEM: ATOMS id type x y z c_q[1] c_q[2] c_q[3] c_q[4] 
2 1 -172.51 -487.824 -487.092 0.468281 0.49474 0.209486 0.70147 
6 1 161.954 -184.068 -486.519 0.649728 0.756145 0.0234478 0.074493 
4 1 -492.769 -156.412 -480.389 -0.0689078 0.8326 0.191684 0.515059 
8 1 -176.368 149.155 -483.241 -0.0521143 0.800389 0.557816 0.213315 
9 1 182.188 168.249 -481.028 -0.0213025 0.184516 0.936511 0.2974 
3 1 158.299 495.069 -485.309 0.0649104 0.919296 0.160955 0.353236 
10 1 -493.635 -493.323 -174.672 0.483998 0.309892 0.456571 0.679159 
5 1 -150.991 -174.631 478.852 0.340387 0.0773736 0.454966 0.819241 
7 1 -484.131 174.669 461.611 0.879074 0.190828 0.434682 0.0431802 
1 1 -500.029 491.792 486.548 0.278484 0.414738 0.480425 0.720854 
ITEM: TIMESTEP
200000
ITEM: NUMBER OF ATOMS
10
ITEM: BOX BOUNDS pp pp pp
-5.0000000000000000e+02 5.0000000000000000e+02
-5.0000000000000000e+02 5.0000000000000000e+02
-5.0000000000000000e+02 5.0000000000000000e+02
ITEM: ATOMS id type x y z c_q[1] c_q[2] c_q[3] c_q[4] 
2 1 -174.668 -489.677 -486.215 0.483497 0.458264 0.163893 0.727574 
6 1 164.016 -183.129 -491.954 0.678225 0.734735 0.0130746 -0.00192442 
4 1 -492.459 -151.649 -482.044 -0.128197 0.808413 0.182496 0.544728 
8 1 -178.932 150.162 -486.02 -0.0879859 0.775782 0.596988 0.18446 
9 1 186.509 170.406 -482.187 -0.0272908 0.215365 0.93915 0.266213 
3 1 151.286 493.785 -486.538 0.0768597 0.917289 0.144857 0.362892 
10 1 -488.254 -495.999 -171.404 0.502441 0.286984 0.423439 0.69706 
5 1 -149.539 -173.318 476.724 0.322875 0.070534 0.461853 0.823085 
7 1 -481.706 168.399 463.607 0.866248 0.177651 0.454816 0.105818 
1 1 497.678 488.712 490.105 0.290542 0.388766 0.493588 0.721676 
ITEM: TIMESTEP
210000
ITEM: NUMBER OF ATOMS
10
ITEM: BOX BOUNDS pp pp pp
-5.0000000000000000e+02 5.0000000000000000e+02
-5.0000000000000000e+02 5.0000000000000000e+02
-5.0000000000000000e+02 5.0000000000000000e+02
ITEM: ATOMS id type x y z c_q[1] c_q[2] c_q[3] c_q[4] 
2 1 -175.738 -485.498 -482.329 0.485844 0.455722 0.16828 0.726605 
6 1 167.151 -185.768 -493.427 0.658613 0.748434 0.0758182 -0.0180624 
4 1 -495.178 -148.029 -481.655 -0.163114 0.804016 0.227985 0.524381 
8 1 -173.43 154.437 -488.539 -0.134818 0.776898 0.581521 0.200217 
9 1 182.646 165.28 -483.088 -0.0590436 0.250208 0.928974 0.266302 
3 1 152.853 490.4 -485.979 0.0396761 0.893006 0.212558 0.394696 
10 1 -489.474 -494.405 -175.714 0.511071 0.285719 0.414036 0.696954 
5 1 -149.528 -178.759 481.224 0.307036 0.0570313 0.484217 0.817319 
7 1 -477.529 168.354 465.361 0.869686 0.152516 0.451974 0.126905 
1 1 498.355 488.302 490.173 0.267671 0.370243 0.496139 0.738321 
ITEM: TIMESTEP
220000
ITEM: NUMBER OF ATOMS
10
ITEM: BOX BOUNDS pp pp pp
-5.0000000000000000e+02 5.0000000000000000e+02
-5.0000000000000000e+02 5.0000000000000000e+02
-5.0000000000000000e+02 5.0000000000000000e+02
ITEM: ATOMS id type x y z c_q[1] c_q[2] c_q[3] c_q[4] 
2 1 -174.945 -484.793 -479.092 0.482897 0.480522 0.1106 0.723655 
6 1 166.52 -187.31 -493.985 0.641249 0.765024 0.0474557 -0.0358498 
4 1 -499.506 -146.736 -478.009 -0.156757 0.779539 0.286995 0.53421 
8 1 -171.312 156.325 -485.207 -0.119451 0.789786 0.573712 0.181172 
9 1 185.83 166.636 -482.474 -0.084517 0.191769 0.942725 0.25952 
3 1 154.77 487.644 -487.746 0.0459175 0.856483 0.217832 0.465702 
10 1 -491.552 -492.743 -175.742 0.54909 0.26011 0.414161 0.677727 
5 1 -149.284 -176.237 483.52 0.303198 -0.00882149 0.488929 0.817889 
7 1 -476.995 169.704 467.601 0.88292 0.144715 0.413708 0.168391 
1 1 -498.894 492.653 488.694 0.208606 0.3966 0.528432 0.721077 
ITEM: TIMESTEP
230000
ITEM: NUMBER OF ATOMS
10
ITEM: BOX BOUNDS pp pp pp
-5.0000000000000000e+02 5.0000000000000000e+02
-5.0000000000000000e+02 5.0000000000000000e+02
-5.0000000000000000e+02 5.0000000000000000e+02
ITEM: ATOMS id type x y z c_q[1] c_q[2] c_q[3] c_q[4] 
2 1 -176.293 -489.812 -478.62 0.452644 0.494727 0.147101 0.727132 
6 1 164.51 -187.165 -496.395 0.637154 0.768293 0.0561435 -0.0246675 
4 1 497.956 -136.646 -476.698 -0.173881 0.775899 0.252738 0.551244 
8 1 -169.631 150.378 -490.392 -0.0827914 0.757632 0.62365 0.173779 
9 1 190.105 168.601 -481.861 -0.071469 0.182476 0.932087 0.304645 
3 1 153.098 486.037 -481.95 0.0503509 0.851797 0.250031 0.457592 
10 1 -492.112 -494.344 -172.193 0.561772 0.270246 0.353595 0.697388 
5 1 -155.558 -179.351 483.504 0.272987 -0.0254131 0.533809 0.799925 
7 1 -473.619 163.892 470.66 0.883727 0.135488 0.406783 0.18761 
1 1 -494.948 492.542 489.1 0.224154 0.451973 0.504853 0.700428 
ITEM: TIMESTEP
240000
ITEM: NUMBER OF ATOMS
10
ITEM: BOX BOUNDS pp pp pp
-5.0000000000000000e+02 5.0000000000000000e+02
-5.0000000000000000e+02 5.0000000000000000e+02
-5.0000000000000000e+02 5.0000000000000000e+02
ITEM: ATOMS id type x y z c_q[1] c_q[2] c_q[3] c_q[4] 
2 1 -177.034 -489.11 -481.671 0.451487 0.492339 0.176815 0.722841 
6 1 167.969 -190.279 -496.234 0.62706 0.771154 0.101687 -0.0421459 
4 1 494.181 -140.304 -475.108 -0.129004 0.761104 0.285225 0.568089 
8 1 -165.377 151.126 -487.232 -0.103279 0.707052 0.679161 0.167785 
9 1 193.211 173.914 -481.714 -0.0969509 0.127676 0.937827 0.307864 
3 1 163.069 489.92 -484.89 0.0351588 0.80549 0.268373 0.527187 
10 1 -487.03 -494.457 -172.084 0.54814 0.239346 0.327225 0.73156 
5 1 -159.667 -177.098 486.569 0.235638 0.0386057 0.556227 0.795987 
7 1 -476.256 169.681 469.506 0.904215 0.145453 0.354415 0.188756 
1 1 -495.767 495.675 492.451 0.215681 0.428805 0.543015 0.689016 
ITEM: TIMESTEP
250000
ITEM: NUMBER OF ATOMS
10
ITEM: BOX BOUNDS pp pp pp
-5.0000000000000000e+02 5.0000000000000000e+02
-5.0000000000000000e+02 5.0000000000000000e+02
-5.0000000000000000e+02 5.0000000000000000e+02
ITEM: ATOMS id type x y z c_q[1] c_q[2] c_q[3] c_q[4] 
2 1 -180.375 -486.383 -482.143 0.445398 0.471579 0.158407 0.744406 
6 1 163.923 -188.12 -495.409 0.619333 0.779577 0.084298 -0.039754 
4 1 494.565 -139.708 -472.704 -0.157747 0.766657 0.279276 0.5562 
8 1 -160.571 153.399 -492.853 -0.140364 0.717279 0.651381 0.203743 
9 1 196.658 170.493 -479.695 -0.0697481 0.142906 0.940463 0.300403 
3 1 162.568 489.187 -488.069 0.0519609 0.777408 0.286263 0.557665 
10 1 -486.471 -494.69 -172.232 0.551832 0.224385 0.327486 0.733407 
5 1 -166.962 -171.113 483.657 0.228908 0.0757523 0.581214 0.777209 
7 1 -484.125 169.15 464.857 0.889011 0.108399 0.365427 0.253716 
1 1 -494.185 489.175 496.825 0.222492 0.45588 0.563497 0.65203 
ITEM: TIMESTEP
260000
ITEM: NUMBER OF ATOMS
10
ITEM: BOX BOUNDS pp pp pp
-5.0000000000000000e+02 5.0000000000000000e+02
-5.0000000000000000e+02 5.0000000000000000e+02
-5.0000000000000000e+02 5.0000000000000000e+02
ITEM: ATOMS id type x y z c_q[1] c_q[2] c_q[3] c_q[4] 
2 1 -179.187 -483.552 -483.758 0.480685 0.465832 0.12056 0.733081 
6 1 161.424 -183.983 -491.411 0.627327 0.769411 0.112702 -0.0420136 
4 1 490.013 -142.364 -476.105 -0.186686 0.758877 0.311816 0.540393 
8 1 -158.783 153.207 -489.858 -0.162738 0.746152 0.615375 0.195159 
9 1 197.287 169.872 -482.213 -0.0341867 0.0968927 0.940505 0.323873 
3 1 158.651 487.564 -485.106 0.0572836 0.756719 0.323584 0.565145 
10 1 -484.389 -492.565 -173.874 0.538829 0.234676 0.324622 0.741088 
5 1 -164.788 -172.237 483.383 0.239917 0.109583 0.598725 0.75628 
7 1 -488.593 164.956 462.252 0.870607 0.0967684 0.388828 0.285468 
1 1 -495.045 491.315 495.657 0.249546 0.455894 0.567211 0.638873 
ITEM: TIMESTEP
270000
ITEM: NUMBER OF ATOMS
10
ITEM: BOX BOUNDS pp pp pp
-5.0000000000000000e+02 5.0000000000000000e+02
-5.0000000000000000e+02 5.0000000000000000e+02
-5.0000000000000000e+02 5.0000000000000000e+02
ITEM: ATOMS id type x y z c_q[1] c_q[2] c_q[3] c_q[4] 
2 1 -182.097 -482.518 -483.217 0.436248 0.462321 0.0934754 0.766296 
6 1 158.632 -175.233 -493.208 0.595924 0.794611 0.113088 0.0260807 
4 1 492.955 -139.935 -475.841 -0.155483 0.73054 0.31997 0.582885 
8 1 -157.924 152.818 -492.658 -0.181761 0.740183 0.632209 0.139296 
9 1 202.653 168.39 -479.546 -0.0288848 0.0837028 0.926313 0.366203 
3 1 161.041 487.891 -480.355 0.114421 0.77864 0.290604 0.544222 
10 1 -489.8 -492.485 -171.829 0.543174 0.240807 0.331422 0.732894 
5 1 -166.739 -180.001 484.555 0.254395 0.0486863 0.590084 0.764666 
7 1 -490.566 161.126 462.44 0.888499 0.0527622 0.35038 0.291581 
1 1 -496.439 490.419 493.772 0.218745 0.443913 0.550592 0.672266 
ITEM: TIMESTEP
280000
ITEM: NUMBER OF ATOMS
10
ITEM: BOX BOUNDS pp pp pp
-5.0000000000000000e+02 5.0000000000000000e+02
-5.0000000000000000e+02 5.0000000000000000e+02
-5.0000000000000000e+02 5.0000000000000000e+02
ITEM: ATOMS id type x y z c_q[1] c_q[2] c_q[3] c_q[4] 
2 1 -177.773 -480.007 -489.573 0.404611 0.479042 0.107123 0.771579 
6 1 159.947 -182.564 -492.561 0.583918 0.801262 0.126474 0.0319766 
4 1 498.018 -133.42 -474.425 -0.162927 0.730704 0.284289 0.598921 
8 1 -156.757 152.096 -490.137 -0.186208 0.714983 0.665497 0.106015 
9 1 208.14 171.482 -475.241 -0.051716 0.0724401 0.92324 0.373772 
3 1 162.938 485.595 -483.191 0.135446 0.774281 0.330092 0.522669 
10 1 -491.256 -487.622 -170.1 0.536499 0.250327 0.329629 0.735425 
5 1 -171.229 -180.665 485.663 0.263891 0.0692101 0.615555 0.739367 
7 1 -491.531 155.893 459.354 0.86273 0.151107 0.351901 0.330195 
1 1 -497.202 485.851 493.274 0.210944 0.425136 0.552228 0.685424 
ITEM: TIMESTEP
290000
ITEM: NUMBER OF ATOMS
10
ITEM: BOX BOUNDS pp pp pp
-5.0000000000000000e+02 5.0000000000000000e+02
-5.0000000000000000e+02 5.0000000000000000e+02
-5.0000000000000000e+02 5.0000000000000000e+02
ITEM: ATOMS id type x y z c_q[1] c_q[2] c_q[3] c_q[4] 
2 1 -179.316 -481.324 -489.111 0.474769 0.466429 0.119158 0.736777 
6 1 160.804 -180.783 -490.323 0.592835 0.794991 0.123245 0.0366881 
4 1 491.414 -135.103 -473.385 -0.122441 0.722155 0.278408 0.62128 
8 1 -158.523 146.439 -490.531 -0.183825 0.666383 0.716025 0.0972113 
9 1 210.946 174.367 -481.307 -0.0703184 0.109058 0.915898 0.37986 
3 1 162.71 479.037 -488.675 0.132854 0.757861 0.324718 0.550049 
10 1 -486.104 -479.884 -166.786 0.518701 0.265282 0.339856 0.73829 
5 1 -173.335 -187.575 484.48 0.312652 0.0511017 0.619857 0.717924 
7 1 -486.11 162.34 458.913 0.824549 0.147341 0.380359 0.392094 
1 1 -495.024 486.525 493.034 0.226899 0.421895 0.518844 0.708041 
ITEM: TIMESTEP
300000
ITEM: NUMBER OF ATOMS
10
ITEM: BOX BOUNDS pp pp pp
-5.0000000000000000e+02 5.0000000000000000e+02
-5.0000000000000000e+02 5.0000000000000000e+02
-5.0000000000000000e+02 5.0000000000000000e+02
ITEM: ATOMS id type x y z c_q[1] c_q[2] c_q[3] c_q[4] 
2 1 -180.909 -482.389 -493.158 0.499641 0.473222 0.0928686 0.71958 
6 1 161.888 -180.467 -488.555 0.619217 0.771707 0.131221 0.0617985 
4 1 489.975 -136.265 -473.847 -0.107658 0.706801 0.292174 0.635198 
8 1 -162.497 143.793 -493.083 -0.186191 0.668636 0.710314 0.117099 
9 1 207.542 177.918 -479.59 -0.0697467 0.115239 0.923519 0.359121 
3 1 162.71 480.984 -493.904 0.126121 0.757328 0.345758 0.539443 
10 1 -487.36 -482.057 -168.525 0.51405 0.221977 0.342648 0.754368 
5 1 -169.027 -185.304 482.384 0.228395 -0.00488506 0.604378 0.763243 
7 1 -486.734 158.63 456.679 0.831237 0.199013 0.383227 0.350109 
1 1 -495.961 486.311 491.322 0.184827 0.399653 0.558429 0.703046 
ITEM: TIMESTEP
310000
ITEM: NUMBER OF ATOMS
10
ITEM: BOX BOUNDS pp pp pp
-5.0000000000000000e+02 5.0000000000000000e+02
-5.0000000000000000e+02 5.0000000000000000e+02
-5.0000000000000000e+02 5.0000000000000000e+02
ITEM: ATOMS id type x y z c_q[1] c_q[2] c_q[3] c_q[4] 
2 1 -173.715 -476.912 -492.076 0.527951 0.431949 0.139823 0.717731 
6 1 159.754 -183.352 -490.071 0.631291 0.767544 0.0882276 0.067557 
4 1 494.854 -136.268 -475.742 -0.108066 0.728494 0.270998 0.619821 
8 1 -160.866 142.805 -489.947 -0.181356 0.709225 0.669946 0.123622 
9 1 205.714 183.975 -478.234 -0.0572352 0.191689 0.912834 0.355969 
3 1 159.532 478.594 -491.277 0.071646 0.743713 0.369518 0.552463 
10 1 -490.242 -485.146 -166.572 0.537385 0.26134 0.395805 0.697322 
5 1 -171.787 -187.482 482.944 0.228094 0.0112433 0.616429 0.753566 
7 1 -489.952 153.997 452.139 0.828829 0.159271 0.360671 0.396978 
1 1 -497.248 491.012 489.239 0.157596 0.401985 0.548988 0.71567 
ITEM: TIMESTEP
320000
ITEM: NUMBER OF ATOMS
10