ITEM: TIMESTEP
0
ITEM: NUMBER OF ATOMS
45
ITEM: BOX BOUNDS pp pp pp
-5.0000000000000000e+02 5.0000000000000000e+02
-5.0000000000000000e+02 5.0000000000000000e+02
-5.0000000000000000e+02 5.0000000000000000e+02
ITEM: ATOMS id type x y z c_q[1] c_q[2] c_q[3] c_q[4] 
1 1 -500 -500 -500 0.064583 0.927746 0.177131 0.32209 
2 1 -250 -500 -500 0.924201 0.077724 0.297046 0.227101 
3 1 0 -500 -500 0.746161 0.362784 0.420933 0.366669 
4 1 250 -500 -500 0.29737 0.476539 0.616884 0.551304 
5 1 -500 -250 -500 0.349334 0.583479 0.679909 0.274303 
6 1 -250 -250 -500 0.355529 0.218325 0.62154 0.663039 
7 1 0 -250 -500 0.742284 0.096899 0.621834 0.230102 
8 1 250 -250 -500 0.403721 0.630855 0.596054 0.289398 
9 1 -500 0 -500 0.74268 0.536976 0.393645 0.071605 
10 1 -250 0 -500 0.242301 0.360085 0.550744 0.712959 
11 1 0 0 -500 0.37426 0.712434 0.571962 0.15883 
12 1 250 0 -500 0.727673 0.659025 0.015421 0.18958 
13 1 -500 250 -500 0.213548 0.229325 0.948632 0.043646 
14 1 -250 250 -500 0.622416 0.740632 0.050001 0.248116 
15 1 0 250 -500 0.683734 0.548927 0.464449 0.124392 
16 1 250 250 -500 0.711271 0.138892 0.647793 0.234875 
17 1 -500 -500 -250 0.484425 0.639489 0.578865 0.14595 
18 1 -250 -500 -250 0.584896 0.763931 0.21674 0.165318 
19 1 0 -500 -250 0.74747 0.512367 0.353094 0.232581 
20 1 250 -500 -250 0.317125 0.643668 0.695906 0.028952 
21 1 -500 -250 -250 0.108321 0.161449 0.465713 0.863315 
22 1 -250 -250 -250 0.851351 0.36711 0.28072 0.248249 
23 1 0 -250 -250 0.53777 0.673434 0.506143 0.0333 
24 1 250 -250 -250 0.314198 0.756051 0.566949 0.090746 
25 1 -500 0 -250 0.432659 0.435872 0.658796 0.434522 
26 1 -250 0 -250 0.260654 0.373522 0.889788 0.028594 
27 1 0 0 -250 0.332193 0.545796 0.601381 0.479683 
28 1 250 0 -250 0.18919 0.811468 0.339401 0.436502 
29 1 -500 250 -250 0.616893 0.548537 0.240641 0.510531 
30 1 -250 250 -250 0.496399 0.699757 0.442509 0.260985 
31 1 0 250 -250 0.149661 0.559745 0.127865 0.804946 
32 1 250 250 -250 0.37266 0.581167 0.631141 0.353595 
33 1 -500 -500 0 0.291139 0.503415 0.562882 0.587346 
34 1 -250 -500 0 0.412111 0.511014 0.578609 0.483984 
35 1 0 -500 0 0.148276 0.537806 0.829853 0.01104 
36 1 250 -500 0 0.677219 0.486971 0.32275 0.447287 
37 1 -500 -250 0 0.387755 0.527288 0.354004 0.668053 
38 1 -250 -250 0 0.294178 0.668804 0.163802 0.662819 
39 1 0 -250 0 0.050162 0.225683 0.724887 0.648915 
40 1 250 -250 0 0.278871 0.258513 0.677223 0.629897 
41 1 -500 0 0 0.167079 0.950566 0.014293 0.261352 
42 1 -250 0 0 0.637037 0.634405 0.062537 0.433362 
43 1 0 0 0 0.663496 0.468863 0.362957 0.456293 
44 1 250 0 0 0.505345 0.583395 0.344648 0.534317 
45 1 -500 250 0 0.417155 0.030113 0.601788 0.680387 
ITEM: TIMESTEP
10000
ITEM: NUMBER OF ATOMS
45
ITEM: BOX BOUNDS pp pp pp
-5.0000000000000000e+02 5.0000000000000000e+02
-5.0000000000000000e+02 5.0000000000000000e+02
-5.0000000000000000e+02 5.0000000000000000e+02
ITEM: ATOMS id type x y z c_q[1] c_q[2] c_q[3] c_q[4] 
2 1 -251.085 -497.615 -497.552 0.916285 0.0888897 0.281121 0.271092 
7 1 4.45715 -246.941 -495.308 0.761353 0.139524 0.602003 0.196133 
5 1 499.04 -246.148 -496.516 0.359932 0.601544 0.647106 0.299747 
10 1 -250.37 1.48309 -499.457 0.238351 0.352353 0.530333 0.733337 
14 1 -254.297 245.926 499.685 0.625862 0.749325 0.0433465 0.211968 
15 1 3.11833 249.388 -494.649 0.697042 0.536509 0.461146 0.116769 
16 1 254.155 250.762 -499.233 0.717284 0.131392 0.641226 0.238892 
17 1 -493.995 -498.694 -253.723 0.464237 0.65712 0.586119 0.0956102 
18 1 -251.84 -495.727 -252.821 0.573636 0.776997 0.20056 0.164296 
21 1 -496.266 -246.744 -246.666 0.0607563 0.18404 0.471194 0.860473 
22 1 -251.697 -246.106 -249.942 0.836612 0.364651 0.315432 0.260024 
23 1 -0.0270153 -251.329 -252.575 0.543609 0.660607 0.517649 0.011281 
24 1 251.056 -248.421 -250.748 0.268795 0.765766 0.573692 0.110584 
26 1 -250.33 -2.22741 -250.438 0.274421 0.36402 0.889811 0.0204567 
28 1 251.856 -2.54839 -248.559 0.200736 0.814226 0.346074 0.420682 
27 1 6.19601 6.79112 -244.017 0.297541 0.532179 0.604786 0.512336 
25 1 499.568 0.557683 -248.076 0.450856 0.437492 0.625903 0.462142 
29 1 -499.414 248.572 -249.135 0.616748 0.546185 0.194767 0.532325 
30 1 -247.204 252.216 -251.77 0.485786 0.71937 0.429292 0.249455 
31 1 -0.468993 247.913 -252.29 0.155038 0.530231 0.128766 0.823552 
32 1 253.876 248.833 -250.152 0.352905 0.603809 0.626088 0.3448 
19 1 -2.41842 498.477 -247.382 0.766477 0.502811 0.336724 0.215199 
20 1 244.336 493.251 -249.626 0.372052 0.632105 0.677438 0.0556605 
34 1 -245.23 -495.622 -2.97556 0.418386 0.474997 0.579492 0.513342 
39 1 -0.82813 -241.024 -0.906059 0.0213356 0.277528 0.667389 0.690735 
37 1 498.567 -249.119 -3.58431 0.382173 0.557244 0.341682 0.653205 
42 1 -251.919 2.62193 -4.76655 0.636847 0.665019 0.0817512 0.381434 
43 1 -3.52609 4.02689 -0.550483 0.690019 0.447518 0.345675 0.451786 
33 1 499.805 -498.635 -0.284198 0.299743 0.542024 0.547341 0.562834 
38 1 -246.979 -250.401 1.21966 0.251214 0.663344 0.129677 0.692856 
40 1 252.211 -250.628 7.77322 0.282467 0.230439 0.679597 0.636599 
44 1 249.179 0.1435 0.0472083 0.475736 0.585296 0.312076 0.577678 
41 1 -495.041 6.78427 4.72845 0.158742 0.950797 -0.0275988 0.264622 
45 1 -496.468 253.127 1.2318 0.425495 -0.0290974 0.597712 0.678858 
35 1 -1.87031 497.829 6.85908 0.113101 0.538627 0.833255 -0.0526822 
36 1 245.868 497.821 1.39006 0.64555 0.472813 0.345435 0.490293 
1 1 -493.156 -498.462 495.104 0.055156 0.92319 0.118359 0.361482 
3 1 -0.0197593 -496.363 498.319 0.73227 0.377874 0.425155 0.374479 
6 1 -246.923 -248.218 494.592 0.318365 0.21178 0.661791 0.644846 
8 1 246.185 -251.198 497.532 0.381465 0.660259 0.585773 0.274613 
9 1 -499.553 -3.55742 495.62 0.720175 0.556641 0.405466 0.0842388 
11 1 -1.12946 -2.17225 497.844 0.385189 0.697616 0.585634 0.148306 
12 1 248.376 1.8382 491.679 0.731266 0.649188 -0.00337026 0.209269 
13 1 -497.579 249.846 497.56 0.214359 0.233084 0.944657 0.085703 
4 1 251.047 498.789 496.798 0.280437 0.432894 0.622207 0.588911 
ITEM: TIMESTEP
20000
ITEM: NUMBER OF ATOMS
45
ITEM: BOX BOUNDS pp pp pp
-5.0000000000000000e+02 5.0000000000000000e+02
-5.0000000000000000e+02 5.0000000000000000e+02
-5.0000000000000000e+02 5.0000000000000000e+02
ITEM: ATOMS id type x y z c_q[1] c_q[2] c_q[3] c_q[4] 
2 1 -247.003 -497.668 -493.96 0.908245 0.0699298 0.289475 0.293948 
3 1 -4.41845 -494.205 -496.814 0.726795 0.422229 0.419713 0.342539 
5 1 -498.458 -247.582 -498.415 0.355577 0.587798 0.674747 0.269768 
7 1 4.45802 -242.779 -497.402 0.760615 0.158003 0.604332 0.176871 
15 1 4.73641 253.431 -490.639 0.678335 0.558671 0.471007 0.0768082 
16 1 249.906 255.413 -498.034 0.764017 0.145669 0.584363 0.23147 
17 1 499.636 -498.954 -254.978 0.475239 0.645269 0.594125 0.0692241 
18 1 -249.12 -496.919 -246.888 0.578378 0.775443 0.178269 0.179964 
19 1 -1.35877 -497.807 -247.601 0.743428 0.470405 0.38804 0.274698 
21 1 -491.01 -248.871 -251.221 0.0417375 0.169953 0.449943 0.875743 
22 1 -250.843 -245.344 -247.417 0.79299 0.406423 0.357744 0.279298 
23 1 3.2885 -252.762 -251.199 0.53852 0.653045 0.530925 -0.0405796 
24 1 250.104 -245.487 -248.325 0.257972 0.767361 0.578258 0.10112 
26 1 -250.205 -1.81241 -253.013 0.277611 0.376263 0.883191 -0.0364942 
25 1 -499.274 0.595208 -248.557 0.438824 0.429721 0.625039 0.481767 
27 1 11.5431 6.40498 -241.128 0.303593 0.467969 0.638538 0.530194 
28 1 246.439 4.04425 -250.687 0.226235 0.815624 0.324716 0.422061 
29 1 -499.055 248.564 -250.62 0.598438 0.529548 0.226282 0.556999 
30 1 -246.739 255.718 -253.695 0.506916 0.744179 0.367044 0.233481 
31 1 1.4784 245.098 -248.87 0.230067 0.476366 0.119682 0.840131 
32 1 253.998 249.777 -240.755 0.319518 0.62968 0.626604 0.329816 
20 1 242.673 492.98 -240.498 0.395221 0.61637 0.67976 0.0425908 
34 1 -242.949 -493.466 -5.94166 0.39822 0.431594 0.631311 0.506551 
37 1 -490.948 -253.518 -5.11441 0.401142 0.572834 0.360645 0.617156 
38 1 -247.125 -251.105 -2.10195 0.230389 0.650705 0.0583031 0.721182 
39 1 -1.402 -246.313 0.874793 0.072018 0.245612 0.639165 0.725228 
42 1 -250.508 5.97393 -3.64284 0.662208 0.653477 0.0965293 0.353739 
43 1 3.59151 7.56143 -4.84349 0.673334 0.430541 0.369719 0.473882 
35 1 -3.71138 491.961 -0.65343 0.134794 0.537315 0.83254 0.000688298 
33 1 -497.899 -497.41 2.41814 0.269656 0.503544 0.576047 0.58472 
40 1 254.805 -250.302 3.28215 0.223124 0.173897 0.696649 0.659284 
44 1 252.563 -3.03269 3.34013 0.466508 0.578053 0.338036 0.57789 
41 1 -494.842 6.16971 5.1907 0.181269 0.950794 -0.0660115 0.242436 
45 1 499.836 249.796 8.64876 0.391513 -0.0369488 0.621801 0.677286 
36 1 250.691 497.167 7.59133 0.643032 0.47558 0.342966 0.492654 
1 1 -491.786 499.826 493.113 0.0514825 0.903565 0.17903 0.385836 
6 1 -246.354 -255.157 497.974 0.289861 0.213474 0.611428 0.704674 
8 1 243.827 -250.195 491.924 0.397807 0.657237 0.563351 0.304015 
9 1 -498.152 -2.48676 496.128 0.718644 0.545256 0.418806 0.104155 
10 1 -248.816 -0.346998 498.909 0.231676 0.370996 0.538512 0.720203 
11 1 -2.10309 -5.68742 490.929 0.363678 0.698138 0.597146 0.154141 
12 1 253.906 -0.306727 493.857 0.709162 0.666935 -0.00641276 0.228573 
13 1 -497.942 249.546 496.199 0.283322 0.240997 0.921616 0.110787 
14 1 -251.611 240.712 -498.124 0.618736 0.749372 0.0502747 0.23039 
4 1 246.484 496.487 494.907 0.267712 0.459253 0.624229 0.5725 
ITEM: TIMESTEP
30000
ITEM: NUMBER OF ATOMS
45
ITEM: BOX BOUNDS pp pp pp
-5.0000000000000000e+02 5.0000000000000000e+02
-5.0000000000000000e+02 5.0000000000000000e+02
-5.0000000000000000e+02 5.0000000000000000e+02
ITEM: ATOMS id type x y z c_q[1] c_q[2] c_q[3] c_q[4] 
3 1 -8.40373 -497.395 499.689 0.719739 0.440051 0.419302 0.335435 
7 1 8.70079 -242.69 -499.287 0.778495 0.183089 0.587567 0.123242 
10 1 -252.043 3.90161 -498.901 0.218727 0.348761 0.547535 0.728512 
15 1 6.52691 257.497 -487.925 0.66703 0.567954 0.47831 0.0609773 
2 1 -244.969 -499.681 -494.904 0.909974 0.0872788 0.236133 0.329501 
18 1 -248.572 -496.018 -242.759 0.598024 0.751463 0.227401 0.161121 
19 1 -4.33666 -497.742 -250.256 0.755434 0.471711 0.357488 0.281089 
17 1 -499.563 -499.679 -255.599 0.520644 0.64125 0.554066 0.103631 
21 1 -498.4 -245.768 -248.541 0.0423642 0.150056 0.445075 0.881815 
22 1 -251.039 -247.711 -247.304 0.81425 0.369485 0.344051 0.286542 
23 1 -0.0491444 -252.344 -252.476 0.562793 0.640078 0.515977 -0.0856242 
24 1 250.249 -241.514 -245.98 0.275542 0.77836 0.559312 0.0735003 
25 1 499.42 -4.12234 -247.664 0.401846 0.382411 0.666298 0.498325 
26 1 -250.056 -1.93792 -246.236 0.268888 0.381568 0.879471 -0.0929281 
27 1 10.9265 6.8784 -239.211 0.336362 0.453013 0.609559 0.556846 
28 1 244.815 5.81339 -253.907 0.200687 0.7868 0.347044 0.469287 
29 1 -494.988 251.653 -247.965 0.607721 0.509105 0.157077 0.588909 
30 1 -245.033 255.338 -256.067 0.554893 0.702361 0.356755 0.26741 
31 1 2.0552 248.972 -256.886 0.218592 0.425918 0.135834 0.867387 
32 1 251.679 250.568 -236.861 0.306761 0.622142 0.639478 0.331519 
20 1 242.862 492.889 -238.082 0.435683 0.605281 0.663123 0.063908 
34 1 -241.488 -495.132 -8.47783 0.359568 0.43651 0.623404 0.539942 
37 1 -493.444 -253.104 -6.9981 0.419926 0.600265 0.336484 0.591712 
38 1 -244.964 -258.991 -5.88141 0.237354 0.663406 0.0158721 0.709439 
39 1 -1.92374 -247.596 0.818623 0.027281 0.259734 0.66999 0.694915 
42 1 -246.175 3.59274 -1.76433 0.662088 0.658244 0.0929136 0.346009 
43 1 11.479 8.04136 -6.1382 0.644962 0.400084 0.397198 0.515937 
35 1 -6.48365 488.398 -7.61901 0.192164 0.536357 0.821185 0.0323993 
33 1 498.825 -493.567 2.29016 0.214159 0.506975 0.603284 0.5772 
40 1 260.441 -250.37 3.40893 0.152337 0.153982 0.696124 0.684466 
44 1 256.707 -7.35696 3.22643 0.434703 0.585977 0.318398 0.605217 
41 1 -497.098 6.69776 3.1338 0.182387 0.944176 -0.109124 0.251712 
45 1 499.029 248.401 8.49246 0.38724 -0.020706 0.614133 0.687355 
36 1 250.816 497.26 8.69471 0.612297 0.442308 0.363012 0.5456 
6 1 -247.027 -254.355 494.424 0.30817 0.213061 0.594197 0.711735 
8 1 240.927 -256.952 492.087 0.3936 0.690059 0.538936 0.28008 
5 1 499.458 -250.649 497.625 0.34064 0.556952 0.705201 0.276514 
11 1 -3.68484 -5.21349 491.936 0.402248 0.730699 0.538757 0.118395 
9 1 -498.016 -0.083565 494.361 0.744281 0.520005 0.410597 0.083971 
12 1 251.806 4.89644 494.451 0.696062 0.676148 0.00150908 0.241494 
14 1 -247.899 246.061 499.347 0.615927 0.771655 0.0437476 0.152539 
16 1 243.668 257.42 499.591 0.799851 0.158862 0.532439 0.226957 
13 1 495.652 247.52 497.69 0.245582 0.194296 0.937876 0.149424 
1 1 -493.161 498.551 493.912 0.0735494 0.897406 0.148929 0.408747 
4 1 245.307 498.019 489.358 0.243805 0.47095 0.626196 0.571527 
ITEM: TIMESTEP
40000
ITEM: NUMBER OF ATOMS
45
ITEM: BOX BOUNDS pp pp pp
-5.0000000000000000e+02 5.0000000000000000e+02
-5.0000000000000000e+02 5.0000000000000000e+02
-5.0000000000000000e+02 5.0000000000000000e+02
ITEM: ATOMS id type x y z c_q[1] c_q[2] c_q[3] c_q[4] 
2 1 -245.608 -499.188 -490.775 0.901108 0.049714 0.254499 0.347511 
7 1 6.44002 -245.478 -493.096 0.776376 0.168175 0.572235 0.203727 
5 1 497.846 -253.932 -497.812 0.334224 0.616824 0.660385 0.267795 
10 1 -250.041 4.25311 -496.398 0.157194 0.357722 0.548348 0.73935 
15 1 8.32172 255.778 -487.092 0.700902 0.52885 0.465666 0.110497 
16 1 240.726 260.25 -499.242 0.787978 0.139458 0.534896 0.27116 
13 1 495.753 243.27 -498.801 0.270422 0.17489 0.939924 0.113264 
18 1 -250.314 -495.227 -239.791 0.594586 0.755806 0.242717 0.127726 
19 1 -5.48474 -499.409 -253.488 0.781797 0.467167 0.28959 0.294426 
21 1 -496.757 -243.283 -246.912 -0.0322666 0.133916 0.43387 0.890383 
22 1 -249.491 -240.865 -246.82 0.83739 0.364681 0.293298 0.282424 
23 1 1.784 -253.765 -251.703 0.551726 0.649397 0.511329 -0.111466 
24 1 254.008 -244.497 -242.021 0.285843 0.77282 0.566351 0.0170166 
25 1 -498.851 -2.50423 -255.605 0.372458 0.403975 0.657247 0.515853 
26 1 -255.297 1.68895 -242.765 0.249548 0.334454 0.901402 -0.115503 
27 1 15.8579 11.3551 -238.511 0.336356 0.434361 0.617229 0.563226 
28 1 240.235 3.66648 -253.078 0.187425 0.789818 0.33006 0.481788 
29 1 -494.212 251.051 -247.464 0.542439 0.542121 0.185953 0.614237 
30 1 -245.387 255.73 -256.783 0.563135 0.704368 0.387456 0.191373 
31 1 -0.520037 245.752 -261.37 0.219641 0.400144 0.114456 0.882351 
32 1 254.59 252.824 -234.271 0.264525 0.656637 0.641509 0.2955 
20 1 242.151 493.128 -237.117 0.455084 0.549718 0.699009 0.0457635 
17 1 497.187 -498.727 -255.544 0.524702 0.653586 0.528533 0.134779 
34 1 -242.98 -496.135 -8.28914 0.341586 0.446393 0.604064 0.564941 
37 1 -489.8 -251.574 -8.62893 0.397319 0.612699 0.4066 0.549011 
38 1 -236.598 -262.341 -5.74946 0.250278 0.702281 -0.00609807 0.666427 
39 1 0.892128 -248.189 -1.35379 -0.00308007 0.262371 0.684936 0.679717 
42 1 -246.296 3.64093 -1.89268 0.656812 0.67904 0.0871661 0.316077 
43 1 13.2323 9.27126 -4.13944 0.627533 0.414684 0.424405 0.504103 
35 1 -2.33573 490.515 -9.7243 0.179421 0.54318 0.820198 0.00615006 
33 1 -495.309 -486.85 5.43918 0.138685 0.564309 0.604993 0.544339 
40 1 255.812 -254.669 8.01388 0.131808 0.228438 0.687023 0.677084 
44 1 261.315 -9.39263 3.33775 0.394634 0.592937 0.310569 0.629474 
41 1 -496.254 8.69911 0.863107 0.201225 0.945673 -0.101652 0.234259 
45 1 499.598 247.845 8.97232 0.348056 -0.0187964 0.590484 0.727896 
36 1 253.048 -499.579 2.92449 0.581301 0.483772 0.349601 0.553022 
3 1 -11.7189 -499.998 499.603 0.725025 0.376965 0.453365 0.355945 
6 1 -247.184 -255.374 491.298 0.298205 0.214152 0.60189 0.709183 
8 1 241.231 -255.195 494.1 0.424484 0.66956 0.541669 0.279458 
11 1 -9.5505 -3.02808 491.441 0.360128 0.736171 0.559012 0.125958 
9 1 -495.052 3.44231 489.527 0.767361 0.49072 0.399353 0.104246 
12 1 253.884 7.50082 495.183 0.674826 0.695164 -0.0181276 0.247037 
14 1 -249.82 242.604 494.64 0.618313 0.769926 0.0607916 0.14563 
1 1 -495.285 496.737 495.189 0.0349047 0.905539 0.118879 0.40577 
4 1 242.346 496.824 486.683 0.277659 0.446496 0.622418 0.579778 
ITEM: TIMESTEP
50000
ITEM: NUMBER OF ATOMS
45
ITEM: BOX BOUNDS pp pp pp
-5.0000000000000000e+02 5.0000000000000000e+02
-5.0000000000000000e+02 5.0000000000000000e+02
-5.0000000000000000e+02 5.0000000000000000e+02
ITEM: ATOMS id type x y z c_q[1] c_q[2] c_q[3] c_q[4] 
7 1 6.20684 -243.04 -494.449 0.816092 0.178918 0.500442 0.227022 
5 1 491.306 -257.748 -494.675 0.289253 0.626082 0.685086 0.234543 
10 1 -247.216 5.35917 -497.215 0.1794 0.395727 0.514936 0.738956 
15 1 12.8728 261.199 -488.2 0.733339 0.506058 0.422476 0.166233 
16 1 242.992 260.748 -496.253 0.79218 0.141143 0.550163 0.22327 
13 1 -499.855 243.111 -498.444 0.173024 0.136678 0.961762 0.162467 
2 1 -244.468 497.001 -484.822 0.886428 0.0129412 0.253571 0.387013 
17 1 -498.693 -495.901 -254.058 0.502787 0.689249 0.499278 0.151201 
18 1 -252.907 -495.238 -240.951 0.617551 0.735343 0.235732 0.149439 
19 1 -8.98325 499.951 -251.074 0.775979 0.447955 0.304453 0.323268 
22 1 -248.299 -238.091 -252.527 0.814095 0.392973 0.309463 0.29505 
23 1 2.648 -255.311 -255.954 0.516778 0.66227 0.51097 -0.182339 
24 1 257.657 -242.482 -245.226 0.309252 0.80376 0.505466 0.0532604 
21 1 496.574 -247.073 -248.122 0.0331708 0.103265 0.446395 0.888239 
25 1 -499.581 -0.0266488 -251.783 0.359936 0.424705 0.653961 0.512257 
26 1 -248.896 1.6687 -250.29 0.249759 0.315669 0.906615 -0.126581 
27 1 24.086 15.5498 -237.547 0.342213 0.457373 0.592467 0.568052 
28 1 243.162 7.88381 -253.45 0.230663 0.762518 0.302366 0.523389 
29 1 -497.323 252.014 -249.583 0.567499 0.493592 0.187374 0.631825 
30 1 -251.006 260.795 -260.416 0.594467 0.690744 0.344789 0.224947 
31 1 1.90972 246.113 -258.849 0.193587 0.404914 0.0955086 0.888508 
32 1 252.96 256.59 -235.905 0.28027 0.652575 0.65031 0.269612 
20 1 236.905 490.437 -238.821 0.446761 0.488261 0.740432 0.117327 
34 1 -247.212 -496.963 -8.80885 0.373904 0.508759 0.575863 0.519367 
37 1 -485.858 -250.199 -11.8805 0.38539 0.592658 0.420029 0.56904 
38 1 -234.772 -265.706 -8.1755 0.272585 0.734191 -0.0217931 0.621438 
39 1 -5.38544 -249.052 -3.44644 -0.0321526 0.246558 0.708353 0.660615 
41 1 -498.679 2.80587 -5.53074 0.192423 0.961328 -0.110687 0.163006 
42 1 -253.514 1.75486 -3.53415 0.623343 0.687909 0.1097 0.355233 
43 1 13.2644 10.8819 -7.08288 0.588528 0.436374 0.430903 0.526816 
35 1 -3.71184 492.998 -5.7303 0.173424 0.537958 0.824166 -0.0357142 
33 1 -496.619 -490.42 3.01814 0.117399 0.58721 0.574663 0.557821 
36 1 254.694 -500.028 4.10049 0.578717 0.461935 0.296139 0.603328 
40 1 253.158 -250.255 11.965 0.110978 0.181746 0.673172 0.708161 
44 1 255.586 -5.9397 4.55224 0.390729 0.591264 0.264699 0.653967 
45 1 -499.426 249.751 9.74103 0.356848 -0.10278 0.567899 0.734565 
6 1 -246.138 -254.217 494.09 0.277673 0.186062 0.621913 0.708169 
8 1 244.473 -258.838 496.933 0.42503 0.654948 0.550109 0.296264 
11 1 -13.0532 -7.38112 485.739 0.378101 0.735351 0.529207 0.190366 
9 1 -492.746 4.38877 485.313 0.772926 0.524761 0.343332 0.0966197 
12 1 255.919 7.08508 496.455 0.690596 0.689463 -0.0424337 0.214283 
14 1 -251.631 245.248 497.154 0.575846 0.792127 0.0911754 0.180621 
1 1 -495.611 -499.78 495.664 -0.00737834 0.89104 0.128579 0.435271 
3 1 -8.12747 496.644 495.868 0.716055 0.4041 0.461966 0.332499 
4 1 242.986 498.71 485.856 0.297215 0.41142 0.616644 0.601786 
ITEM: TIMESTEP
60000
ITEM: NUMBER OF ATOMS
45
ITEM: BOX BOUNDS pp pp pp
-5.0000000000000000e+02 5.0000000000000000e+02
-5.0000000000000000e+02 5.0000000000000000e+02
-5.0000000000000000e+02 5.0000000000000000e+02
ITEM: ATOMS id type x y z c_q[1] c_q[2] c_q[3] c_q[4] 
7 1 8.35186 -244.027 -490.555 0.816684 0.192857 0.509384 0.190688 
5 1 494.916 -256.122 -495.493 0.303141 0.651198 0.658794 0.223689 
10 1 -246.269 4.63797 -499.473 0.177873 0.438704 0.503801 0.722554 
15 1 13.4661 264.718 -485.517 0.755806 0.495239 0.415482 0.104267 
16 1 234.952 257.376 -492.536 0.785362 0.107891 0.544973 0.273076 
2 1 -247.061 499.698 -486.351 0.896228 0.0300863 0.258688 0.359096 
18 1 -252.854 -495.209 -236.138 0.622671 0.74044 0.212153 0.137915 
19 1 -5.46851 -499.569 -253.216 0.783545 0.452027 0.291833 0.310744 
21 1 -495.437 -246.819 -248.466 0.0744445 0.125057 0.424134 0.893829 
22 1 -250.704 -240.228 -251.06 0.81887 0.333358 0.324135 0.336542 
23 1 4.76042 -253.815 -256.243 0.506585 0.691246 0.493725 -0.147599 
24 1 264.534 -242.003 -241.27 0.306085 0.787419 0.534672 0.0202419 
25 1 499.844 -0.486945 -254.22 0.387179 0.423809 0.64197 0.508285 
26 1 -255.897 3.22084 -249.547 0.201811 0.303255 0.921458 -0.134992 
27 1 26.0654 17.2486 -237.299 0.332657 0.482292 0.576791 0.56925 
28 1 246.584 6.28256 -251.794 0.25481 0.746832 0.303302 0.534155 
29 1 -496.173 249.024 -247.279 0.543958 0.528336 0.147132 0.635077 
30 1 -251.53 254.848 -255.598 0.586907 0.699057 0.313008 0.262462 
31 1 0.576675 245.342 -262.027 0.169813 0.404862 0.111134 0.891572 
32 1 249.109 256.469 -236.908 0.296231 0.662732 0.63531 0.263466 
17 1 -496.796 497.86 -255.837 0.522781 0.686239 0.476038 0.170771 
20 1 239.373 493.413 -241.826 0.450699 0.492978 0.738149 0.0947604 
34 1 -245.443 -492.578 -3.51278 0.387646 0.514606 0.555867 0.525284 
37 1 -485.438 -246.754 -13.0995 0.406275 0.555399 0.38981 0.611981 
38 1 -231.36 -265.331 -8.64355 0.319709 0.747657 -0.0420437 0.58054 
39 1 -1.92613 -247.457 -6.49092 -0.103321 0.287637 0.667162 0.679327 
41 1 -495.266 3.44356 -3.04745 0.20822 0.941662 -0.18715 0.186794 
42 1 -256.828 0.715571 -8.97587 0.594706 0.688664 0.143352 0.389252 
43 1 12.3969 11.5788 -7.94524 0.596372 0.446381 0.403487 0.531303 
35 1 -6.40314 491.193 -4.54834 0.190986 0.476576 0.856836 -0.0472426 
36 1 255.2 498.737 -0.612574 0.541446 0.470545 0.323043 0.617306 
33 1 -498.396 -490.571 7.25102 0.116019 0.542907 0.598646 0.577421 
40 1 251.657 -255.772 12.5908 0.0832524 0.209833 0.677188 0.700325 
44 1 257.867 -10.7829 2.80559 0.34124 0.617998 0.325681 0.62894 
45 1 499.625 248.288 12.5427 0.377069 -0.0686848 0.561322 0.733498 
6 1 -243.648 -252.456 495.352 0.334083 0.194528 0.617868 0.68468 
8 1 247.513 -262.326 496.347 0.42229 0.637938 0.570399 0.298918 
11 1 -12.6013 -7.39425 486.807 0.37869 0.743173 0.517126 0.192013 
9 1 -495.876 11.7968 483.256 0.776604 0.505192 0.356753 0.119978 
12 1 254.909 5.01841 493.144 0.692085 0.695191 -0.0671742 0.182251 
13 1 -497.135 247.394 498.739 0.207115 0.123681 0.950237 0.197119 
14 1 -251.416 256.425 498.952 0.574486 0.786097 0.125231 0.190616 
1 1 -495.694 498.859 498.857 0.0145801 0.876141 0.1373 0.461858 
3 1 -6.99357 492.369 495.355 0.740333 0.402522 0.436372 0.315376 
4 1 240.316 498.974 483.401 0.325287 0.402904 0.578814 0.629945 
ITEM: TIMESTEP
70000
ITEM: NUMBER OF ATOMS
45
ITEM: BOX BOUNDS pp pp pp
-5.0000000000000000e+02 5.0000000000000000e+02
-5.0000000000000000e+02 5.0000000000000000e+02
-5.0000000000000000e+02 5.0000000000000000e+02
ITEM: ATOMS id type x y z c_q[1] c_q[2] c_q[3] c_q[4] 
2 1 -246.467 -498.883 -485.863 0.901305 -0.0114533 0.256839 0.348642 
7 1 6.40667 -246.429 -494.162 0.819264 0.183594 0.495655 0.222319 
5 1 499.147 -262.458 -497.818 0.315728 0.66522 0.638511 0.223832 
10 1 -251.188 2.61181 -499.259 0.154864 0.45687 0.528542 0.698521 
14 1 -250.341 261.874 -496.288 0.598706 0.761261 0.132158 0.211109 
15 1 15.957 266.64 -488.469 0.736308 0.525365 0.413173 0.105496 
16 1 235.941 259.746 -497.139 0.782049 0.112556 0.541281 0.287656 
18 1 -255.732 -492.688 -239.328 0.608296 0.739305 0.256957 0.131821 
19 1 -8.12716 499.764 -250.835 0.778493 0.42207 0.313258 0.343037 
21 1 -494.08 -245.592 -247.517 0.0482147 0.0941058 0.430189 0.896525 
22 1 -247.86 -240.291 -254.333 0.783859 0.358543 0.378701 0.337043 
23 1 6.52401 -252.644 -254.135 0.529196 0.677556 0.495429 -0.124175 
24 1 265.814 -238.05 -240.847 0.29067 0.790827 0.535627 0.0566353 
25 1 -494.335 2.21839 -256.673 0.384913 0.437415 0.644371 0.495274 
26 1 -256.316 4.10908 -252.483 0.192891 0.311217 0.915811 -0.165009 
27 1 22.2288 12.1773 -233.328 0.385038 0.472667 0.560408 0.560603 
28 1 245.847 6.04325 -252.737 0.237518 0.709352 0.306907 0.588398 
29 1 -496.384 246.934 -244.59 0.578824 0.508411 0.159208 0.61736 
30 1 -253.482 256.586 -261.176 0.55525 0.727255 0.307563 0.261156 
31 1 -3.06933 245.059 -258.337 0.202136 0.422296 0.093297 0.878694 
32 1 250.883 254.641 -236.212 0.291836 0.652485 0.64085 0.280013 
17 1 -494.265 496.048 -256.929 0.522465 0.684506 0.4837 0.156579 
20 1 236.174 485.493 -242.186 0.451167 0.478494 0.745465 0.108511 
34 1 -253.017 -490.432 -0.294493 0.411902 0.535656 0.534562 0.507594 
37 1 -487.888 -245.015 -10.3123 0.383612 0.536506 0.414891 0.626792 
38 1 -231.416 -264.55 -5.61138 0.312824 0.738385 -0.0581488 0.594598 
39 1 3.28063 -244.423 -6.715 -0.151699 0.254684 0.67328 0.677361 
41 1 -498.992 2.74323 -4.63774 0.223031 0.936869 -0.171529 0.207632 
42 1 -260.321 2.66598 -8.50555 0.625778 0.682646 0.184464 0.329195 
43 1 11.2989 11.9458 -3.37264 0.589665 0.481167 0.406125 0.505803 
35 1 -5.64204 489.138 -9.56644 0.18679 0.430652 0.879996 -0.0724884 
36 1 252.528 -499.949 3.01281 0.556562 0.450203 0.325664 0.617656 
33 1 498.657 -493.782 11.2798 0.113712 0.547274 0.585954 0.586702 
40 1 251.273 -258.684 10.0648 0.122454 0.235331 0.691007 0.672409 
44 1 254.817 -7.34977 4.63039 0.330901 0.624779 0.350579 0.614207 
45 1 -496.365 246.147 10.1536 0.367271 -0.0941388 0.577412 0.72308 
6 1 -241.106 -257.902 492.195 0.280776 0.190101 0.625877 0.702356 
8 1 245.71 -257.002 494.08 0.426737 0.656522 0.548377 0.293526 
11 1 -14.7645 -3.57832 485.868 0.373333 0.725024 0.555574 0.162172 
12 1 254.635 0.975117 498.375 0.720367 0.666359 -0.0727907 0.178152 
9 1 496.37 13.1248 480.877 0.791792 0.493479 0.329496 0.144831 
13 1 -494.542 251.021 498.877 0.19454 0.119241 0.946481 0.228277 
1 1 -496.36 496.117 498.862 -0.00621099 0.902952 0.154067 0.401127 
3 1 -9.54352 488.554 493.314 0.698516 0.433588 0.446688 0.35291 
4 1 241.313 495.119 486.069 0.330772 0.331697 0.604088 0.644705 
ITEM: TIMESTEP
80000
ITEM: NUMBER OF ATOMS
45
ITEM: BOX BOUNDS pp pp pp
-5.0000000000000000e+02 5.0000000000000000e+02
-5.0000000000000000e+02 5.0000000000000000e+02
-5.0000000000000000e+02 5.0000000000000000e+02
ITEM: ATOMS id type x y z c_q[1] c_q[2] c_q[3] c_q[4] 
2 1 -249.989 -497.598 -486.991 0.891507 -0.00554773 0.292804 0.345614 
5 1 498.24 -266.94 -494.775 0.304735 0.696951 0.613311 0.212709 
10 1 -251.169 10.6376 -492.756 0.178069 0.473437 0.579878 0.638663 
15 1 18.7651 267.982 -487.239 0.745547 0.52378 0.402393 0.0888465 
16 1 236.688 259.685 -493.437 0.766956 0.130483 0.545376 0.311958 
1 1 -496.621 495.368 -495.082 0.0376927 0.91502 0.166291 0.365603 
18 1 -253.724 -493.899 -235.801 0.587822 0.737455 0.288218 0.166001 
21 1 -488.224 -240.897 -251.389 0.0867627 0.168713 0.379383 0.905581 
22 1 -250.965 -237.708 -250.441 0.817432 0.344561 0.315513 0.336948 
23 1 10.694 -253.626 -248.102 0.493577 0.697307 0.507295 -0.113122 
24 1 270.593 -237.692 -236.784 0.273256 0.765861 0.577072 0.075997 
25 1 -496.537 5.4901 -260.285 0.376142 0.434491 0.67416 0.463944 
26 1 -258.187 -0.070505 -249.931 0.226124 0.330982 0.906111 -0.135213 
27 1 19.5683 16.5311 -233.706 0.353016 0.427618 0.595064 0.58174 
28 1 248.448 6.93727 -256.061 0.261976 0.694175 0.322296 0.58789 
29 1 -497.623 244.601 -240.101 0.570419 0.511627 0.227055 0.601087 
30 1 -257.109 255.85 -262.17 0.566523 0.711163 0.300319 0.288283 
31 1 -6.55793 245.388 -258.024 0.233169 0.404178 0.0694809 0.881728 
32 1 254.324 252.396 -236.041 0.258284 0.654114 0.642956 0.303367 
17 1 -491.18 498.829 -255.612 0.542763 0.683533 0.448567 0.192298 
19 1 -4.75986 495.032 -246.693 0.778648 0.404333 0.308807 0.367234 
20 1 236.667 482.913 -238.715 0.474346 0.465906 0.728121 0.166636 
37 1 -488.993 -246.797 -11.9201 0.353253 0.528668 0.428714 0.641815 
38 1 -233.327 -261.787 -5.91436 0.294887 0.742486 -0.0602262 0.598439 
39 1 5.51491 -246.541 -9.26028 -0.157819 0.314965 0.678764 0.644336 
42 1 -257.655 4.51649 -8.37098 0.649342 0.649549 0.161308 0.361138 
43 1 8.28563 16.1539 -1.48755 0.576046 0.487282 0.421053 0.50343 
41 1 -499.104 8.56327 -3.80426 0.251132 0.936639 -0.166195 0.17894 
35 1 -3.94838 485.909 -8.34364 0.178814 0.447812 0.871033 -0.0937626 
33 1 -499.714 -492.313 9.63272 0.120358 0.513571 0.619467 0.581395 
34 1 -261.224 -485.235 3.41317 0.407151 0.572192 0.529209 0.476195 
40 1 253.351 -259.651 6.30061 0.138265 0.248602 0.681028 0.674745 
44 1 252.52 -7.69287 4.15034 0.324253 0.568422 0.368539 0.660254 
45 1 -494.674 246.296 11.2061 0.334649 -0.155305 0.571565 0.732942 
36 1 254.981 494.677 4.68868 0.557998 0.477504 0.337928 0.588586 
6 1 -240.311 -256.205 490.984 0.279188 0.219979 0.617084 0.702048 
7 1 6.51654 -240.326 498.375 0.807312 0.175693 0.525787 0.202306 
8 1 236.944 -258.723 493.991 0.450996 0.688818 0.494468 0.278628 
11 1 -13.5121 -1.21364 491.232 0.361312 0.737914 0.55152 0.14409 
12 1 262.679 1.63972 496.573 0.724387 0.642818 -0.0943288 0.230544 
9 1 493.998 10.1073 474.664 0.771286 0.488977 0.36601 0.179041 
13 1 -494.301 253.329 498.04 0.237012 0.111691 0.941282 0.212931 
14 1 -248.284 262.846 495.685 0.589823 0.758806 0.189477 0.201048 
3 1 -4.17985 487.718 489.572 0.659555 0.424588 0.480386 0.392355 
4 1 245.544 494.545 486.793 0.285156 0.359301 0.607035 0.64892 
ITEM: TIMESTEP
90000
ITEM: NUMBER OF ATOMS
45
ITEM: BOX BOUNDS pp pp pp
-5.0000000000000000e+02 5.0000000000000000e+02
-5.0000000000000000e+02 5.0000000000000000e+02
-5.0000000000000000e+02 5.0000000000000000e+02
ITEM: ATOMS id type x y z c_q[1] c_q[2] c_q[3] c_q[4] 
1 1 -497.937 -497.084 -493.915 0.0223666 0.939888 0.136738 0.312109 
2 1 -252.7 -499.091 -486.921 0.862561 -0.0502993 0.283407 0.416099 
5 1 494.127 -267.168 -495.893 0.347436 0.701492 0.583226 0.216896 
10 1 -253.216 2.29043 -489.846 0.175033 0.442197 0.614668 0.629292 
15 1 19.7835 273.34 -492.549 0.757371 0.49623 0.392451 0.16164 
16 1 236.755 264.444 -487.392 0.833682 0.120663 0.453102 0.291742 
18 1 -253.599 -488.089 -228.433 0.577127 0.761517 0.256469 0.145738 
21 1 -488.804 -244.478 -247.482 0.0877805 0.145052 0.372581 0.91238 
22 1 -247.961 -234.634 -247.442 0.825376 0.321968 0.285016 0.365866 