ITEM: TIMESTEP
0
ITEM: NUMBER OF ATOMS
30
ITEM: BOX BOUNDS pp pp pp
-5.0000000000000000e+02 5.0000000000000000e+02
-5.0000000000000000e+02 5.0000000000000000e+02
-5.0000000000000000e+02 5.0000000000000000e+02
ITEM: ATOMS id type x y z c_q[1] c_q[2] c_q[3] c_q[4] 
1 1 -500 -500 -500 0.501634 0.576966 0.497363 0.410003 
2 1 -250 -500 -500 0.235464 0.134845 0.803834 0.529362 
3 1 0 -500 -500 0.316394 0.756096 0.08269 0.5669 
4 1 250 -500 -500 0.645616 0.390626 0.333953 0.56486 
5 1 -500 -250 -500 0.146404 0.683346 0.423023 0.576763 
6 1 -250 -250 -500 0.063577 0.571813 0.607338 0.54784 
7 1 0 -250 -500 0.315453 0.44706 0.714249 0.436434 
8 1 250 -250 -500 0.176564 0.49425 0.416828 0.742156 
9 1 -500 0 -500 0.83689 0.005196 0.012164 0.547211 
10 1 -250 0 -500 0.215541 0.713497 0.35814 0.562317 
11 1 0 0 -500 0.493658 0.473044 0.141409 0.715915 
12 1 250 0 -500 0.623834 0.388656 0.334577 0.589776 
13 1 -500 250 -500 0.12925 0.203225 0.712691 0.658836 
14 1 -250 250 -500 0.713707 0.280643 0.194258 0.611658 
15 1 0 250 -500 0.246179 0.46605 0.572514 0.628029 
16 1 250 250 -500 0.035976 0.538687 0.020606 0.841485 
17 1 -500 -500 -250 0.325962 0.34228 0.880967 0.022164 
18 1 -250 -500 -250 0.714807 0.65849 0.198054 0.127346 
19 1 0 -500 -250 0.753425 0.50923 0.379872 0.169506 
20 1 250 -500 -250 0.027317 0.722766 0.499358 0.476975 
21 1 -500 -250 -250 0.462308 0.485586 0.586037 0.455014 
22 1 -250 -250 -250 0.417851 0.290876 0.350223 0.786216 
23 1 0 -250 -250 0.603942 0.484713 0.632672 0.005831 
24 1 250 -250 -250 0.7921 0.076324 0.273209 0.540471 
25 1 -500 0 -250 0.528265 0.595466 0.602792 0.054754 
26 1 -250 0 -250 0.128654 0.194351 0.579139 0.7812 
27 1 0 0 -250 0.540442 0.163861 0.800444 0.200902 
28 1 250 0 -250 0.784967 0.267471 0.549239 0.103061 
29 1 -500 250 -250 0.627698 0.204931 0.682004 0.314435 
30 1 -250 250 -250 0.257474 0.424361 0.688398 0.528898 
ITEM: TIMESTEP
10000
ITEM: NUMBER OF ATOMS
30
ITEM: BOX BOUNDS pp pp pp
-5.0000000000000000e+02 5.0000000000000000e+02
-5.0000000000000000e+02 5.0000000000000000e+02
-5.0000000000000000e+02 5.0000000000000000e+02
ITEM: ATOMS id type x y z c_q[1] c_q[2] c_q[3] c_q[4] 
4 1 250.055 -499.512 -496.728 0.652595 0.409919 0.314703 0.554119 
6 1 -249.567 -252.858 -498.874 0.0423689 0.545887 0.630457 0.550215 
7 1 -1.98275 -250.067 -497.634 0.309959 0.416415 0.739988 0.427717 
12 1 252.623 -2.89314 -496.705 0.640541 0.369062 0.312065 0.596754 
10 1 -247.054 1.95003 -499.3 0.199563 0.68951 0.360602 0.59558 
11 1 -2.20209 2.14823 -499.279 0.490744 0.446396 0.0966384 0.741999 
14 1 -245.914 244.26 -498.422 0.708291 0.268138 0.177185 0.628515 
16 1 253.704 251.834 -496.153 0.045755 0.548527 0.0464152 0.833589 
3 1 -3.00498 493.264 -496.286 0.354556 0.745293 0.0246622 0.56411 
19 1 -4.84406 -497.917 -247.993 0.757221 0.475653 0.415642 0.16617 
20 1 244.097 -497.307 -244.906 0.0342233 0.724068 0.458872 0.513799 
22 1 -248.294 -244.211 -247.356 0.415147 0.288735 0.332859 0.795921 
23 1 6.00127 -254.097 -244.819 0.570227 0.496061 0.654623 0.0152936 
24 1 252.135 -253.075 -250.976 0.748147 0.143773 0.313365 0.566928 
21 1 497.47 -245.967 -250.278 0.490203 0.517138 0.572389 0.405758 
26 1 -248.343 0.545695 -253.253 0.0905948 0.206049 0.589117 0.776066 
25 1 496.525 0.210266 -252.251 0.48369 0.623944 0.607502 0.0876346 
27 1 -2.04802 5.54169 -249.946 0.514757 0.151062 0.82977 0.153905 
28 1 254.454 -0.0949441 -254.122 0.781753 0.290081 0.537183 0.127081 
30 1 -250.64 248.839 -242.77 0.270645 0.423801 0.676653 0.537852 
29 1 496.546 247.911 -251.161 0.633462 0.192914 0.650182 0.372524 
17 1 -496.134 -499.843 -251.314 0.356678 0.363793 0.860346 -0.0154938 
18 1 -248.979 498.905 -254.193 0.721693 0.664313 0.166306 0.100947 
2 1 -249.995 -497.718 -499.596 0.252268 0.0983484 0.791948 0.547273 
8 1 251.801 -252.994 -499.599 0.221507 0.474475 0.408897 0.747403 
5 1 497.567 -254.57 498.325 0.16425 0.681723 0.400781 0.589619 
9 1 498.132 1.40926 495.594 0.828665 0.0456401 0.0142286 0.5577 
13 1 -496.197 252.481 495.286 0.151202 0.212437 0.698268 0.666656 
15 1 -2.78228 251.163 497.813 0.217837 0.468573 0.571072 0.637858 
1 1 495.911 495.315 499.119 0.471276 0.606022 0.495734 0.406059 
ITEM: TIMESTEP
20000
ITEM: NUMBER OF ATOMS
30
ITEM: BOX BOUNDS pp pp pp
-5.0000000000000000e+02 5.0000000000000000e+02
-5.0000000000000000e+02 5.0000000000000000e+02
-5.0000000000000000e+02 5.0000000000000000e+02
ITEM: ATOMS id type x y z c_q[1] c_q[2] c_q[3] c_q[4] 
4 1 250.701 -498.663 -495.35 0.660643 0.408418 0.33896 0.530897 
6 1 -246.842 -255.118 -496.91 0.0496592 0.54098 0.636109 0.547941 
7 1 -2.87533 -251.627 -499.746 0.347539 0.457423 0.706042 0.414108 
12 1 248.179 5.37879 -499.618 0.677069 0.375562 0.304218 0.554962 
14 1 -243.204 246.42 -496.772 0.694951 0.268358 0.180151 0.642318 
16 1 257.279 248.27 -496.6 0.0787532 0.526037 0.0228367 0.846499 
3 1 -5.81737 492.309 -497.928 0.354485 0.710699 0.0171403 0.607416 
1 1 490.999 495.552 -497.569 0.484319 0.615205 0.469769 0.407768 
17 1 499.972 -498.838 -251.238 0.390493 0.365733 0.844817 -0.00629492 
18 1 -250.724 -498.932 -247.619 0.736261 0.654607 0.144829 0.0918358 
19 1 -6.82079 -496.996 -242.888 0.753989 0.491354 0.376915 0.219106 
21 1 -496.687 -247.471 -252.874 0.481012 0.448327 0.605642 0.448139 
22 1 -247.619 -238.98 -245.824 0.501746 0.236606 0.286533 0.781132 
23 1 3.74923 -246.074 -248.308 0.591714 0.478434 0.648776 0.00808125 
24 1 254.278 -254.259 -247.163 0.773745 0.124265 0.282683 0.553143 
25 1 -497.158 -4.17022 -252.869 0.517989 0.598936 0.597205 0.127706 
26 1 -242.533 3.78613 -245.798 0.0514677 0.157599 0.595593 0.785991 
27 1 1.59979 7.49834 -244.293 0.538999 0.170455 0.810813 0.151682 
28 1 248.833 5.67993 -251.919 0.77674 0.277535 0.555142 0.107078 
30 1 -248.299 251.705 -245.466 0.268413 0.422818 0.68968 0.522992 
29 1 498.915 239.869 -250.099 0.613045 0.232027 0.630125 0.416271 
20 1 247.662 496.55 -246.183 -0.0397164 0.713912 0.473287 0.514541 
2 1 -253.303 -499.994 499.594 0.313328 0.0744215 0.763115 0.560306 
5 1 -497.531 -254.761 496.669 0.166362 0.673656 0.400898 0.598157 
8 1 249.259 -254.823 499.168 0.26627 0.468298 0.391664 0.74592 
11 1 -2.95539 -1.65406 499.394 0.558706 0.408702 0.0845833 0.716698 
10 1 -246.114 2.42331 498.962 0.202801 0.666093 0.351941 0.625563 
9 1 498.317 -0.565834 492.7 0.804617 0.0559224 0.00697392 0.591114 
13 1 -497.727 255.606 494.432 0.145294 0.192078 0.723683 0.646744 
15 1 1.23506 258.813 494.023 0.242109 0.459462 0.532277 0.66855 
ITEM: TIMESTEP
30000
ITEM: NUMBER OF ATOMS
30
ITEM: BOX BOUNDS pp pp pp
-5.0000000000000000e+02 5.0000000000000000e+02
-5.0000000000000000e+02 5.0000000000000000e+02
-5.0000000000000000e+02 5.0000000000000000e+02
ITEM: ATOMS id type x y z c_q[1] c_q[2] c_q[3] c_q[4] 
4 1 253.326 -495.992 -491.674 0.66883 0.419095 0.338098 0.512558 
6 1 -246.038 -257.576 -496.241 0.0502847 0.531129 0.632359 0.56169 
7 1 -1.25332 -249.416 -493.721 0.36803 0.455021 0.692981 0.421054 
11 1 2.88692 -5.26487 -498.193 0.573996 0.375786 0.0916651 0.721742 
10 1 -244.818 2.71517 -495.341 0.206937 0.672454 0.341684 0.623085 
12 1 248.906 3.36851 -494.058 0.695553 0.357198 0.297028 0.548079 
14 1 -249.879 243.521 -492.955 0.711563 0.262128 0.0787028 0.647127 
16 1 260.637 246.593 -496.549 0.0870674 0.521947 0.00617979 0.8485 
2 1 -255.914 -499.173 -498.065 0.300361 0.130923 0.747521 0.577802 
18 1 -248.053 -499.824 -249.219 0.744489 0.620633 0.206197 0.134289 
22 1 -251.652 -239.72 -239.197 0.55562 0.216731 0.273374 0.754706 
23 1 4.58542 -246.135 -246.681 0.604668 0.464694 0.646863 0.00201062 
24 1 251.931 -248.76 -249.476 0.790327 0.102005 0.26202 0.544356 
21 1 496.425 -242.935 -252.677 0.5044 0.48324 0.546132 0.462384 
28 1 249.597 -1.47323 -253.051 0.782271 0.278887 0.544973 0.115232 
25 1 499.611 -1.7904 -255.291 0.523662 0.596101 0.600049 0.101897 
26 1 -245.466 2.21245 -243.481 0.0661914 0.196247 0.608949 0.765694 
27 1 -1.35889 7.68129 -248.867 0.57234 0.137402 0.788544 0.178175 
29 1 -497.126 242.955 -244.71 0.627814 0.248339 0.609952 0.414893 
30 1 -251.061 251.689 -245.073 0.29117 0.436799 0.669146 0.525994 
19 1 -4.50621 -499.716 -244.687 0.754234 0.492659 0.357358 0.246398 
20 1 246.626 491.98 -244.846 -0.0437112 0.658725 0.511429 0.550102 
17 1 496.825 499.506 -254.695 0.415477 0.359395 0.835392 -0.0182677 
5 1 -499.008 -257.948 497.954 0.137227 0.671667 0.395228 0.611413 
8 1 252.716 -251.727 494.938 0.267704 0.529617 0.406074 0.694942 
9 1 494.123 0.304908 494.292 0.828607 0.0475171 -0.00497542 0.557788 
13 1 -494.493 261.434 487.801 0.164273 0.217451 0.705061 0.654689 
15 1 -3.40789 259.482 490.631 0.235973 0.448521 0.540846 0.671291 
3 1 -7.04244 492.435 -499.475 0.402667 0.722322 -0.011372 0.562122 
1 1 489.218 490.746 498.532 0.44368 0.626231 0.47631 0.429082 
ITEM: TIMESTEP
40000
ITEM: NUMBER OF ATOMS
30
ITEM: BOX BOUNDS pp pp pp
-5.0000000000000000e+02 5.0000000000000000e+02
-5.0000000000000000e+02 5.0000000000000000e+02
-5.0000000000000000e+02 5.0000000000000000e+02
ITEM: ATOMS id type x y z c_q[1] c_q[2] c_q[3] c_q[4] 
2 1 -252.486 -499.514 -495.309 0.328098 0.0924528 0.703036 0.624136 
4 1 250.707 -498.49 -495.343 0.648352 0.412895 0.332137 0.546665 
6 1 -249.54 -255.556 -498.872 -0.00474886 0.538886 0.612684 0.578098 
7 1 0.593746 -248.612 -493.785 0.356782 0.464608 0.692694 0.420738 
11 1 5.29984 -2.23551 -494.842 0.562123 0.392663 0.0962099 0.721511 
10 1 -245.424 6.47221 -493.403 0.190976 0.648102 0.348803 0.649483 
12 1 248.501 3.68436 -495.916 0.705501 0.360389 0.300429 0.531159 
14 1 -251.507 239.086 -491.131 0.694604 0.267464 0.114401 0.657952 
16 1 254.259 248.867 -499.313 0.0825587 0.537495 -0.0356741 0.838457 
3 1 -7.83841 489.84 -499.971 0.412619 0.739852 0.0281854 0.530632 
17 1 -499.29 499.647 -256.177 0.38424 0.34153 0.85705 -0.0343736 
22 1 -255.524 -243.874 -238.939 0.544452 0.208694 0.236093 0.777354 
23 1 2.35793 -243.922 -250.96 0.620121 0.487979 0.614134 0.0128526 
24 1 251.18 -245.254 -248.673 0.817234 0.125696 0.260476 0.49848 
21 1 499.444 -240.378 -248.703 0.513269 0.508824 0.496886 0.480371 
25 1 -498.505 -3.02728 -254.59 0.513497 0.602355 0.604123 0.0923232 
28 1 245.18 -1.56957 -251.813 0.743479 0.312324 0.578635 0.121959 
26 1 -239.373 5.40109 -241.621 0.0885566 0.178867 0.60986 0.766965 
27 1 -4.48025 7.10096 -252.09 0.548953 0.12786 0.804638 0.186709 
29 1 -492.304 241.195 -245.548 0.669254 0.270074 0.558248 0.409291 
30 1 -246.548 251.823 -240.29 0.283881 0.440503 0.681976 0.510174 
18 1 -242.344 497.616 -253.875 0.735258 0.614507 0.251678 0.135775 
19 1 -3.39826 499.713 -246.217 0.759664 0.513257 0.333017 0.220404 
20 1 249.332 489.35 -247.031 -0.0544449 0.703509 0.505498 0.49657 
5 1 -499.642 -249.924 495.37 0.17979 0.598741 0.42323 0.655791 
8 1 253.693 -251.899 496.972 0.264838 0.509792 0.402234 0.712868 
9 1 497.561 0.931997 495.343 0.845199 0.0878032 0.033171 0.526146 
13 1 -498.512 261.871 487.63 0.17339 0.243107 0.715067 0.632071 
15 1 -0.986137 260.213 485.096 0.191113 0.479398 0.53174 0.671496 
1 1 491.522 492.09 496.455 0.437055 0.614868 0.4969 0.428966 
ITEM: TIMESTEP
50000
ITEM: NUMBER OF ATOMS
30
ITEM: BOX BOUNDS pp pp pp
-5.0000000000000000e+02 5.0000000000000000e+02
-5.0000000000000000e+02 5.0000000000000000e+02
-5.0000000000000000e+02 5.0000000000000000e+02
ITEM: ATOMS id type x y z c_q[1] c_q[2] c_q[3] c_q[4] 
2 1 -252.348 -496.161 -497.275 0.326272 0.0334958 0.700767 0.633522 
7 1 3.22082 -243.487 -497.992 0.337938 0.423115 0.718496 0.436504 
10 1 -245.436 6.25453 -493.173 0.200728 0.644944 0.359596 0.643775 
11 1 5.77171 -0.653054 -496.624 0.54011 0.374808 0.0436302 0.752261 
12 1 248.985 2.0041 -496.466 0.711551 0.304253 0.31565 0.549081 
14 1 -249.706 234.679 -487.66 0.665745 0.287243 0.127002 0.676865 
4 1 253.491 493.334 -490.907 0.665797 0.422846 0.321027 0.524269 
17 1 498.028 -499.584 -253.786 0.357854 0.350702 0.864971 -0.0278158 
22 1 -252.53 -240.962 -238.334 0.574596 0.197764 0.215804 0.764302 
23 1 1.34889 -246.255 -257.391 0.634845 0.448884 0.627338 0.043839 
24 1 255.784 -239.081 -248.095 0.855232 0.101381 0.232753 0.451804 
21 1 496.672 -240.166 -248.259 0.508154 0.524135 0.501839 0.463917 
25 1 -499.811 -2.86218 -253.052 0.530818 0.621909 0.558818 0.138505 
28 1 247.099 -5.03993 -251.864 0.711378 0.370269 0.581627 0.136208 
26 1 -244.369 3.79045 -238.067 0.0921931 0.211769 0.626763 0.744193 
27 1 -6.2902 14.6039 -253.046 0.555342 0.124432 0.791977 0.221096 
29 1 -491.853 243.216 -243.646 0.703976 0.247643 0.532876 0.398916 
30 1 -247.809 250.127 -238.656 0.302672 0.437902 0.688852 0.49205 
18 1 -242.204 496.632 -256.974 0.707691 0.626428 0.296273 0.137782 
19 1 -2.03895 494.341 -246.688 0.777392 0.492865 0.341018 0.190925 
20 1 250.319 498.905 -247.102 -0.0537802 0.706515 0.502795 0.495118 
5 1 -497.443 -246.61 494.293 0.168911 0.580429 0.44188 0.662807 
6 1 -245.752 -260.205 496.855 -0.00791299 0.568806 0.600239 0.562237 
8 1 249.508 -254.112 493.482 0.297006 0.484618 0.398427 0.719853 
9 1 495.804 5.4017 497.88 0.854358 0.0720174 0.0481651 0.512412 
15 1 -1.8664 261.758 492.686 0.185746 0.457208 0.539403 0.682279 
16 1 250.855 245.949 494.257 0.0981969 0.534159 -0.0621791 0.837356 
13 1 499.179 263.867 489.718 0.13545 0.206443 0.714526 0.654589 
3 1 -13.5945 498.345 498.239 0.370198 0.726936 0.0731075 0.573735 
1 1 487.767 495.142 499.744 0.474597 0.640219 0.473991 0.374446 
ITEM: TIMESTEP
60000
ITEM: NUMBER OF ATOMS
30
ITEM: BOX BOUNDS pp pp pp
-5.0000000000000000e+02 5.0000000000000000e+02
-5.0000000000000000e+02 5.0000000000000000e+02
-5.0000000000000000e+02 5.0000000000000000e+02
ITEM: ATOMS id type x y z c_q[1] c_q[2] c_q[3] c_q[4] 
2 1 -245.924 -497.107 -496.694 0.259926 0.00092098 0.713778 0.650353 
3 1 -15.4299 -494.882 500.53 0.352917 0.777368 0.0703831 0.515941 
8 1 246.164 -252.828 -498.523 0.276107 0.51879 0.398851 0.703946 
10 1 -251.4 -0.266549 -499.684 0.203721 0.628432 0.37198 0.652075 
11 1 0.727264 -0.0142506 -495.805 0.541597 0.355482 0.0210943 0.761486 
9 1 497.288 6.48679 -497.62 0.848306 0.0289261 0.0191739 0.528369 
14 1 -253.549 232.649 -489.554 0.690361 0.316929 0.141238 0.63483 
16 1 247.093 243.932 500.303 0.0350471 0.579239 -0.0745753 0.810982 
4 1 260.221 492.058 -483.815 0.640813 0.426549 0.330106 0.5463 
1 1 487.901 494.795 -495.935 0.496111 0.664782 0.44666 0.335312 
17 1 496.655 -496.764 -246.787 0.35664 0.416911 0.835108 -0.0398357 
22 1 -252.908 -243.551 -245.59 0.549303 0.127298 0.245602 0.788506 
23 1 7.98764 -247.257 -255.473 0.662672 0.399773 0.622821 0.114634 
24 1 251.651 -243.814 -253.177 0.853763 0.116221 0.239716 0.447345 
21 1 496.831 -238.791 -251.862 0.472936 0.564025 0.520319 0.432984 
25 1 499.682 -8.52643 -255.496 0.544327 0.645594 0.518077 0.136062 
28 1 247.262 -4.37287 -247.875 0.71374 0.353553 0.588008 0.140791 
26 1 -249.39 2.0045 -240.009 0.109403 0.248895 0.575791 0.771069 
27 1 -4.15609 15.0773 -251.012 0.542175 0.135041 0.79585 0.233309 
29 1 -487.794 240.93 -245.996 0.692 0.27094 0.543317 0.390558 
30 1 -248.33 256.673 -237.161 0.31056 0.436507 0.69602 0.47809 
18 1 -244.063 497.828 -258.695 0.691023 0.632515 0.311801 0.158722 
19 1 0.479116 495.642 -244.466 0.775873 0.494307 0.344369 0.187328 
20 1 247.337 497.796 -244.766 -0.0361457 0.705984 0.481061 0.518518 
5 1 -492.002 -249.524 496.717 0.158491 0.571458 0.436612 0.676525 
6 1 -245.94 -260.791 498.558 -0.0279343 0.577051 0.607009 0.545685 
7 1 2.3318 -238.57 495.19 0.337374 0.438177 0.68988 0.467167 
12 1 244.001 -0.842268 500.364 0.730696 0.300407 0.275926 0.547452 
15 1 1.83973 265.986 489.057 0.185505 0.460413 0.530775 0.68694 
13 1 496.248 259.575 491.864 0.120002 0.185267 0.698491 0.680725 
ITEM: TIMESTEP
70000
ITEM: NUMBER OF ATOMS
30
ITEM: BOX BOUNDS pp pp pp
-5.0000000000000000e+02 5.0000000000000000e+02
-5.0000000000000000e+02 5.0000000000000000e+02
-5.0000000000000000e+02 5.0000000000000000e+02
ITEM: ATOMS id type x y z c_q[1] c_q[2] c_q[3] c_q[4] 
8 1 248.084 -259.604 -496.484 0.253333 0.492617 0.387916 0.736663 
11 1 -0.616732 7.55494 -490.233 0.577894 0.350181 0.0321353 0.736464 
9 1 495.275 4.46072 -494.898 0.848745 0.0409533 0.0376585 0.525867 
14 1 -255.392 229.144 -483.898 0.696395 0.330799 0.131949 0.623053 
4 1 262.776 493.451 -486.373 0.621253 0.426271 0.351081 0.555949 
1 1 484.821 493.155 -498.723 0.466148 0.670485 0.478838 0.322291 
19 1 0.909758 -497.793 -245.222 0.781141 0.494588 0.323218 0.201823 
22 1 -256.551 -244.17 -241.346 0.545524 0.157816 0.245257 0.785714 
23 1 7.47074 -248.576 -254.578 0.707122 0.429948 0.54796 0.121915 
24 1 255.618 -243.152 -252.587 0.875498 0.135477 0.236388 0.399087 
21 1 495.751 -241.891 -253.495 0.512406 0.599112 0.490626 0.371202 
25 1 -493.138 -10.1436 -257.035 0.542575 0.6634 0.495401 0.141743 
26 1 -251.235 5.06336 -240.299 0.104889 0.270117 0.571709 0.767583 
27 1 -3.95803 17.8913 -249.373 0.53286 0.184048 0.781667 0.266802 
28 1 249.397 5.12732 -254.033 0.652489 0.333369 0.660208 0.165071 
29 1 -486.605 242.36 -242.761 0.688597 0.275837 0.52318 0.41956 
30 1 -247.762 257.509 -234.072 0.335777 0.453009 0.677356 0.472468 
18 1 -242.929 491.334 -260.079 0.689792 0.636748 0.290079 0.185991 
20 1 241.603 493.42 -244.232 -0.0347525 0.691275 0.484303 0.535146 
17 1 495.846 497.135 -247.847 0.308781 0.431646 0.844903 -0.0668926 
2 1 -246.139 -496.111 499.74 0.274018 -0.072669 0.709244 0.64545 
3 1 -13.3953 -495.956 496.171 0.355659 0.733098 0.0759253 0.574725 
5 1 -494.739 -249.991 498.307 0.169822 0.534911 0.482064 0.672789 
6 1 -250.391 -266.125 498.166 -0.0902348 0.537445 0.599792 0.585884 
7 1 -1.29828 -236.037 498.166 0.34798 0.44454 0.683633 0.462537 
10 1 -254.526 -4.25398 494.489 0.164436 0.657399 0.377901 0.630855 
12 1 241.99 -0.902266 498.354 0.711707 0.251799 0.278489 0.59373 
15 1 3.841 270.258 492.174 0.183393 0.506217 0.532717 0.652934 
16 1 249.663 246.35 495.65 0.045274 0.586218 -0.109997 0.801374 
13 1 499.189 260.778 488.283 0.158664 0.182365 0.726467 0.643284 
ITEM: TIMESTEP
80000
ITEM: NUMBER OF ATOMS
30
ITEM: BOX BOUNDS pp pp pp
-5.0000000000000000e+02 5.0000000000000000e+02
-5.0000000000000000e+02 5.0000000000000000e+02
-5.0000000000000000e+02 5.0000000000000000e+02
ITEM: ATOMS id type x y z c_q[1] c_q[2] c_q[3] c_q[4] 
3 1 -13.3753 -494.131 -492.711 0.355599 0.739754 0.0763038 0.56612 
8 1 246.071 -261.24 -492.637 0.221773 0.44084 0.402077 0.77124 
11 1 2.64085 7.45932 -489.945 0.569143 0.337812 0.0528062 0.747778 
9 1 497.651 8.78936 -492.735 0.848547 0.0422375 0.06777 0.52306 
14 1 -263.177 234.459 -483.306 0.695567 0.303285 0.091843 0.644803 
4 1 259.578 494.922 -487.782 0.62437 0.38712 0.341802 0.586065 
1 1 483.348 493.821 -497.156 0.445597 0.677986 0.486029 0.324892 
19 1 1.9585 -492.679 -250.688 0.781439 0.499562 0.296087 0.228307 
22 1 -257.869 -244.741 -239.321 0.537793 0.189382 0.272003 0.775195 
23 1 7.40936 -248.307 -255.742 0.701942 0.423045 0.555746 0.139489 
24 1 255.874 -244.564 -252.399 0.872932 0.143379 0.16116 0.437561 
21 1 492.665 -239.106 -258.496 0.519853 0.566012 0.50022 0.398952 
25 1 -494.229 -5.14891 -262.207 0.528932 0.682691 0.486819 0.13104 
26 1 -253.064 5.00441 -237.088 0.115589 0.306848 0.550706 0.767597 
27 1 -5.66026 16.6223 -246.147 0.499306 0.208507 0.809587 0.227566 
28 1 251.319 8.84198 -255.716 0.685299 0.318916 0.635308 0.158247 
29 1 -485.95 239.051 -247.156 0.679282 0.253237 0.509673 0.463336 
30 1 -248.643 255.811 -237.186 0.317446 0.465994 0.68295 0.464389 
18 1 -240.022 491.78 -258.848 0.688725 0.620345 0.30936 0.212426 
20 1 240.471 494.124 -241.163 0.0102753 0.674649 0.51654 0.52719 
17 1 494.979 499.577 -247.062 0.298913 0.442297 0.837789 -0.114602 
2 1 -243.544 498.648 497.066 0.241241 -0.0325155 0.747538 0.618007 
5 1 -494.241 -249.076 494.446 0.204668 0.54472 0.499499 0.641788 
6 1 -245.193 -266.572 496.33 -0.0839468 0.551986 0.605446 0.567186 
7 1 -5.22887 -235.973 498.172 0.296078 0.47313 0.715782 0.419693 
10 1 -252.28 -8.42342 494.431 0.119264 0.622345 0.410621 0.655632 
12 1 241.952 0.0519168 495.967 0.758941 0.2505 0.276498 0.533673 
15 1 2.6963 268.594 492.922 0.0993247 0.540714 0.521708 0.652367 
16 1 251.264 250.046 490.47 0.0248837 0.56793 -0.110194 0.815288 
13 1 -499.227 260.594 486.451 0.192378 0.208443 0.748409 0.599522 
ITEM: TIMESTEP
90000
ITEM: NUMBER OF ATOMS
30
ITEM: BOX BOUNDS pp pp pp
-5.0000000000000000e+02 5.0000000000000000e+02
-5.0000000000000000e+02 5.0000000000000000e+02
-5.0000000000000000e+02 5.0000000000000000e+02
ITEM: ATOMS id type x y z c_q[1] c_q[2] c_q[3] c_q[4] 
3 1 -16.7351 -495.447 -496.576 0.363946 0.745029 0.0645484 0.555255 
8 1 243.17 -259.253 -489.557 0.208268 0.421961 0.412359 0.780086 
11 1 7.88916 3.79498 -489.426 0.577045 0.305928 0.025738 0.756812 
9 1 -499.221 4.61226 -489.303 0.861296 0.0177555 0.0512661 0.505199 
14 1 -263.336 230.182 -475.551 0.689459 0.328001 0.0840643 0.640308 
4 1 261.128 494.6 -485.331 0.628948 0.352758 0.323279 0.612761 
1 1 480.86 499.23 -498.032 0.448721 0.693317 0.468464 0.313852 
19 1 3.91194 -492.219 -245.485 0.761162 0.476558 0.374323 0.2311 
17 1 495.08 -496.482 -242.373 0.324988 0.431418 0.837645 -0.0813132 
22 1 -254.115 -249.469 -240.289 0.559166 0.197955 0.259771 0.762014 
23 1 8.45815 -253.121 -260.047 0.6966 0.479004 0.519254 0.125212 
24 1 251.534 -248.246 -250.298 0.901178 0.140796 0.158513 0.378059 
21 1 492.925 -236.899 -256.453 0.553141 0.526833 0.508868 0.396908 
25 1 -492.248 -1.01961 -260.224 0.517568 0.673424 0.518371 0.0995712 
26 1 -247.883 4.45844 -239.321 0.123041 0.287959 0.540021 0.781228 
27 1 -5.04799 16.6708 -245.344 0.468512 0.178915 0.837029 0.218789 
28 1 253.361 10.7742 -257.745 0.72003 0.316056 0.600396 0.145565 
29 1 -484.636 236.675 -251.559 0.668987 0.217199 0.545666 0.455554 
30 1 -253.443 251.796 -238.232 0.340986 0.517397 0.64806 0.442773 
18 1 -234.115 496.472 -258.391 0.708124 0.623227 0.28327 0.172932 
20 1 246.619 495.141 -244.793 -0.00373559 0.695973 0.514839 0.500549 
5 1 -486.966 -246.869 495.472 0.203583 0.511463 0.497061 0.670738 
6 1 -247.23 -262.308 498.789 -0.089715 0.543492 0.585581 0.594695 
7 1 -4.12392 -236.817 496.188 0.357588 0.479593 0.671974 0.436546 
10 1 -249.564 -10.584 495.914 0.132397 0.586084 0.404051 0.689724 
12 1 241.408 1.15276 494.802 0.754967 0.251327 0.28225 0.535906 
13 1 499.2 261.219 485.239 0.20878 0.217927 0.753812 0.583683 
15 1 -0.291203 269.555 494.813 0.0923987 0.557012 0.53204 0.630978 
16 1 248.908 250.762 487.155 0.0792519 0.597032 -0.148702 0.784321 
2 1 -241.974 498.875 497.842 0.224578 0.0521496 0.772021 0.592308 
ITEM: TIMESTEP
100000
ITEM: NUMBER OF ATOMS
30
ITEM: BOX BOUNDS pp pp pp
-5.0000000000000000e+02 5.0000000000000000e+02
-5.0000000000000000e+02 5.0000000000000000e+02
-5.0000000000000000e+02 5.0000000000000000e+02
ITEM: ATOMS id type x y z c_q[1] c_q[2] c_q[3] c_q[4] 
3 1 -21.6307 -498.743 -493.657 0.409656 0.772078 -0.00240075 0.485872 
1 1 481.217 -496.79 -495.74 0.48123 0.656711 0.476812 0.331358 
8 1 248.234 -263.066 -492.388 0.205285 0.433114 0.385935 0.788242 
9 1 -497.83 5.39616 -489.981 0.865119 0.00508788 -0.00525749 0.501514 
11 1 13.1789 0.305466 -489.056 0.5763 0.295737 0.0572043 0.759701 
14 1 -264.312 233.474 -476.33 0.666054 0.332628 0.0442935 0.66616 
4 1 253.801 486.847 -485.674 0.644707 0.326204 0.28624 0.629293 
19 1 0.719686 -489.629 -244.112 0.777816 0.468834 0.370805 0.194167 
17 1 495.205 -495.23 -237.554 0.326276 0.434586 0.837102 -0.0627629 
22 1 -253.475 -248.354 -241.562 0.555945 0.213557 0.248563 0.763894 
23 1 7.40482 -251.199 -263.431 0.700501 0.448216 0.541952 0.121195 
24 1 252.399 -249.146 -248.946 0.921025 0.127834 0.0933034 0.3559 
21 1 495.117 -242.01 -253.055 0.562692 0.53891 0.495555 0.383899 
25 1 -492.781 -4.42428 -265.799 0.478488 0.663252 0.561859 0.124342 
26 1 -248.186 6.2011 -242.616 0.167567 0.299253 0.520016 0.782274 
27 1 -1.67465 15.6386 -245.921 0.500927 0.152078 0.823923 0.217016 
28 1 253.356 12.6224 -256.666 0.733927 0.355424 0.569877 0.10132 
29 1 -483.813 233.769 -248.223 0.647598 0.229352 0.600121 0.409719 
30 1 -251.641 255.943 -237.086 0.334207 0.544361 0.644678 0.419961 
18 1 -238.092 494.177 -256.063 0.733295 0.624948 0.237086 0.124533 
20 1 256.877 494.991 -239.924 0.0282487 0.722676 0.496507 0.480023 
5 1 -496.75 -248.875 497.214 0.228742 0.545244 0.46217 0.660897 
6 1 -250.78 -261.533 498.961 -0.121605 0.542049 0.579802 0.596008 
7 1 -2.35754 -238.92 494.058 0.375597 0.456135 0.663347 0.459171 
10 1 -254.254 -6.98472 491.528 0.0972726 0.565233 0.380011 0.725701 
12 1 243.773 -3.04404 492.599 0.763309 0.218723 0.262099 0.548474 
13 1 -498.218 258.776 492.373 0.23517 0.265654 0.749251 0.559237 
15 1 1.66216 263.227 490.302 0.134604 0.530232 0.534606 0.644152 
16 1 248.302 255.052 490.212 0.114701 0.575079 -0.168032 0.792397 
2 1 -232.447 495.431 496.548 0.229772 -0.0210823 0.789952 0.568098 
ITEM: TIMESTEP
110000
ITEM: NUMBER OF ATOMS
30
ITEM: BOX BOUNDS pp pp pp
-5.0000000000000000e+02 5.0000000000000000e+02
-5.0000000000000000e+02 5.0000000000000000e+02
-5.0000000000000000e+02 5.0000000000000000e+02
ITEM: ATOMS id type x y z c_q[1] c_q[2] c_q[3] c_q[4] 
3 1 -24.607 -499.904 -494.208 0.450055 0.766872 0.0237309 0.456939 
1 1 483.464 -496.212 -496.267 0.490885 0.672735 0.424012 0.355912 
5 1 -496.442 -250.838 -499.422 0.20357 0.571626 0.434128 0.665834 
6 1 -248.416 -257.284 499.79 -0.0883398 0.504908 0.613881 0.600344 
8 1 246.385 -264.194 -493.06 0.226512 0.442097 0.384353 0.778149 
9 1 -497.352 5.65909 -489.249 0.861246 -0.0298036 -0.0189556 0.50696 
11 1 15.4332 0.0919358 -490.879 0.596265 0.287378 0.0682344 0.746476 
14 1 -260.033 232.509 -475.98 0.694034 0.353358 0.0716286 0.623157 
4 1 256.054 484.946 -490.182 0.627859 0.312604 0.298713 0.64718 
19 1 4.71109 -488.025 -245.216 0.783494 0.446104 0.377635 0.210998 
17 1 494.642 -498.937 -233.355 0.354167 0.432791 0.828045 -0.0400029 
22 1 -253.75 -253.459 -238.627 0.548731 0.240779 0.231284 0.766438 
23 1 13.9828 -251.166 -261.675 0.706466 0.470502 0.515301 0.118318 
24 1 255.403 -250.958 -250.397 0.919453 0.102726 0.0446125 0.376912 
21 1 495.339 -246.535 -254.749 0.524845 0.534175 0.52491 0.404555 
25 1 -494.319 -6.76499 -266.88 0.496124 0.663029 0.541078 0.146589 
26 1 -249.081 11.0922 -244.101 0.155094 0.255213 0.540389 0.786633 
27 1 -2.93997 19.4828 -249.661 0.506099 0.115441 0.823667 0.228277 
28 1 250.831 8.23611 -264.417 0.735347 0.401709 0.537039 0.0973863 
29 1 -480.809 238.737 -252.725 0.657714 0.21125 0.5762 0.436783 
30 1 -250.858 259.928 -237.278 0.388359 0.528539 0.619332 0.431568 
18 1 -231.888 491.443 -258.702 0.721244 0.623251 0.274127 0.127351 
20 1 255.701 495.802 -238.174 0.0394235 0.733642 0.438681 0.517469 
7 1 -0.982189 -242.355 493.372 0.414999 0.426149 0.671212 0.44232 
10 1 -252.619 -6.39743 491.852 0.087311 0.560442 0.438148 0.697358 
12 1 242.713 -3.90424 493.798 0.766046 0.181777 0.296662 0.540483 
13 1 -498.625 256.013 491.338 0.296867 0.261916 0.715642 0.575437 
15 1 0.541637 265.543 496.464 0.135179 0.452676 0.564529 0.676844 
16 1 252.849 258.48 489.578 0.0441743 0.614807 -0.183865 0.765672 
2 1 -231.656 494.533 494.932 0.237189 0.0149201 0.782973 0.574868 
ITEM: TIMESTEP
120000
ITEM: NUMBER OF ATOMS
30
ITEM: BOX BOUNDS pp pp pp
-5.0000000000000000e+02 5.0000000000000000e+02
-5.0000000000000000e+02 5.0000000000000000e+02
-5.0000000000000000e+02 5.0000000000000000e+02
ITEM: ATOMS id type x y z c_q[1] c_q[2] c_q[3] c_q[4] 
3 1 -23.5734 -497.889 -495.958 0.442206 0.735523 0.00534748 0.513256 
1 1 485.944 -496.615 -496.295 0.489185 0.702647 0.369703 0.360979 
5 1 -493.943 -253.474 -497.818 0.207319 0.545416 0.446892 0.678105 
8 1 247.73 -260.922 -487.921 0.260416 0.443074 0.369208 0.77431 
11 1 15.2653 -5.97982 -495.919 0.61365 0.28591 0.107619 0.728085 
9 1 -498.96 2.24394 -490.113 0.844668 -0.0822676 -0.070262 0.524244 
14 1 -258.677 233.436 -477.865 0.692597 0.339784 0.0898559 0.629906 
4 1 256.113 483.444 -487.053 0.637745 0.345574 0.236216 0.646577 
19 1 7.77744 -488.425 -242.271 0.784643 0.447598 0.3888 0.181179 
17 1 495.977 -496.672 -237.039 0.340016 0.449359 0.825644 -0.0278883 
22 1 -251.344 -256.926 -239.855 0.570086 0.240517 0.263636 0.740033 
23 1 10.0886 -246.736 -259.279 0.750831 0.472049 0.439567 0.142141 
24 1 258.008 -254.392 -250.249 0.911723 0.093584 0.0623043 0.395123 
21 1 498.505 -250.896 -252.636 0.485019 0.565501 0.530245 0.404728 
25 1 -489.696 -6.65233 -266.931 0.51593 0.655881 0.525361 0.166229 
26 1 -243.589 9.25366 -246.916 0.139098 0.262397 0.556359 0.776057 
27 1 0.462381 18.925 -247.855 0.492161 0.144205 0.808186 0.289512 
28 1 252.815 7.85237 -264.308 0.725149 0.429241 0.536049 0.0506208 
29 1 -483.955 242.841 -249.674 0.642186 0.196925 0.558196 0.487067 
30 1 -252.357 258.704 -235.284 0.375824 0.524286 0.625341 0.439123 
18 1 -229.282 492.679 -251.365 0.70252 0.653839 0.238181 0.149097 
20 1 254.531 494.41 -237.313 -0.00298185 0.762173 0.405171 0.504896 
6 1 -242.577 -260.648 496.514 -0.0643972 0.50544 0.598042 0.618651 
7 1 3.97275 -236.614 494.442 0.421468 0.42498 0.656918 0.458492 
10 1 -254.519 -7.50492 488.663 0.0887085 0.568119 0.474026 0.666837 
12 1 245.938 -4.40083 494.696 0.763283 0.181307 0.297178 0.544254 
13 1 -498.046 248.643 490.307 0.31464 0.267356 0.70049 0.582096 
15 1 -1.72961 266.431 494.209 0.111666 0.435871 0.545926 0.706762 
16 1 254.79 261.976 493.302 0.0866541 0.61325 -0.175705 0.765208 
2 1 -228.003 -499.202 493.273 0.262783 0.0247433 0.774445 0.57495 
ITEM: TIMESTEP
130000
ITEM: NUMBER OF ATOMS
30
ITEM: BOX BOUNDS pp pp pp
-5.0000000000000000e+02 5.0000000000000000e+02
-5.0000000000000000e+02 5.0000000000000000e+02
-5.0000000000000000e+02 5.0000000000000000e+02
ITEM: ATOMS id type x y z c_q[1] c_q[2] c_q[3] c_q[4] 
1 1 484.107 -493.879 -499.62 0.470323 0.708789 0.341904 0.399395 
5 1 -493.19 -253.771 -497.175 0.19077 0.560516 0.448691 0.669407 
8 1 244.563 -265.158 -491.411 0.241998 0.439369 0.370092 0.781936 
11 1 11.7885 -0.0269626 -494.032 0.630028 0.271011 0.0887284 0.722319 
9 1 492.078 1.99224 -488.959 0.842217 -0.14457 -0.0674044 0.515002 