ITEM: TIMESTEP
0
ITEM: NUMBER OF ATOMS
5
ITEM: BOX BOUNDS
-500.000000 500.000000
-500.000000 500.000000
-500.000000 500.000000
ITEM: ATOMS id type x y z c_q[1] c_q[2] c_q[3] c_q[4]
1 1 -500.000000 -500.000000 -500.000000 0.311085 0.541152 0.551172 0.553706
2 1 0.000000 -500.000000 -500.000000 0.469577 0.770930 0.131415 0.409748
3 1 -500.000000 0.000000 -500.000000 0.340936 0.643182 0.676389 0.112148
4 1 0.000000 0.000000 -500.000000 0.370049 0.663759 0.632434 0.150047
5 1 -500.000000 -500.000000 0.000000 0.777893 0.425119 0.194092 0.420101
