LAMMPS data file

5 atoms
5 ellipsoids
0 bonds
0 angles
0 dihedrals

1 atom types
0 bond types
0 angle types
0 dihedral types

-500.000000 500.000000 xlo xhi
-500.000000 500.000000 ylo yhi
-500.000000 500.000000 zlo zhi

Masses

1 203166.000000

Atoms

1 1 -500.000000 -500.000000 -500.000000 1 1.000000 3 0.000000
2 1 0.000000 -500.000000 -500.000000 1 1.000000 4 0.000000
3 1 -500.000000 0.000000 -500.000000 1 1.000000 5 0.000000
4 1 0.000000 0.000000 -500.000000 1 1.000000 6 0.000000
5 1 -500.000000 -500.000000 0.000000 1 1.000000 7 0.000000

Ellipsoids

1 55.000000 110.000000 110.000000 0.311085 0.541152 0.551172 0.553706
2 55.000000 110.000000 110.000000 0.469577 0.770930 0.131415 0.409748
3 55.000000 110.000000 110.000000 0.340936 0.643182 0.676389 0.112148
4 55.000000 110.000000 110.000000 0.370049 0.663759 0.632434 0.150047
5 55.000000 110.000000 110.000000 0.777893 0.425119 0.194092 0.420101




