LAMMPS data file

15 atoms
15 ellipsoids
0 bonds
0 angles
0 dihedrals

1 atom types
0 bond types
0 angle types
0 dihedral types

-500.000000 500.000000 xlo xhi
-500.000000 500.000000 ylo yhi
-500.000000 500.000000 zlo zhi

Masses

1 203166.000000

Atoms

1 1 -500.000000 -500.000000 -500.000000 1 1.000000 3 0.000000
2 1 -166.666667 -500.000000 -500.000000 1 1.000000 4 0.000000
3 1 166.666667 -500.000000 -500.000000 1 1.000000 5 0.000000
4 1 -500.000000 -166.666667 -500.000000 1 1.000000 6 0.000000
5 1 -166.666667 -166.666667 -500.000000 1 1.000000 7 0.000000
6 1 166.666667 -166.666667 -500.000000 1 1.000000 8 0.000000
7 1 -500.000000 166.666667 -500.000000 1 1.000000 9 0.000000
8 1 -166.666667 166.666667 -500.000000 1 1.000000 10 0.000000
9 1 166.666667 166.666667 -500.000000 1 1.000000 11 0.000000
10 1 -500.000000 -500.000000 -166.666667 1 1.000000 12 0.000000
11 1 -166.666667 -500.000000 -166.666667 1 1.000000 13 0.000000
12 1 166.666667 -500.000000 -166.666667 1 1.000000 14 0.000000
13 1 -500.000000 -166.666667 -166.666667 1 1.000000 15 0.000000
14 1 -166.666667 -166.666667 -166.666667 1 1.000000 16 0.000000
15 1 166.666667 -166.666667 -166.666667 1 1.000000 17 0.000000

Ellipsoids

1 55.000000 110.000000 110.000000 0.798914 0.129929 0.496615 0.313415
2 55.000000 110.000000 110.000000 0.310898 0.716345 0.561021 0.274677
3 55.000000 110.000000 110.000000 0.380804 0.429330 0.639452 0.511630
4 55.000000 110.000000 110.000000 0.026917 0.585712 0.627900 0.511818
5 55.000000 110.000000 110.000000 0.315903 0.576797 0.569362 0.493293
6 55.000000 110.000000 110.000000 0.211722 0.773343 0.556809 0.216974
7 55.000000 110.000000 110.000000 0.593774 0.618288 0.513606 0.036903
8 55.000000 110.000000 110.000000 0.315728 0.522805 0.557132 0.562668
9 55.000000 110.000000 110.000000 0.397773 0.798272 0.356527 0.278258
10 55.000000 110.000000 110.000000 0.439415 0.325594 0.701943 0.456266
11 55.000000 110.000000 110.000000 0.413686 0.404431 0.805720 0.126947
12 55.000000 110.000000 110.000000 0.384643 0.338346 0.484712 0.708962
13 55.000000 110.000000 110.000000 0.714194 0.423937 0.441090 0.340065
14 55.000000 110.000000 110.000000 0.730423 0.263765 0.589426 0.222456
15 55.000000 110.000000 110.000000 0.670556 0.349715 0.098680 0.646774




