ITEM: TIMESTEP
0
ITEM: NUMBER OF ATOMS
15
ITEM: BOX BOUNDS pp pp pp
-5.0000000000000000e+02 5.0000000000000000e+02
-5.0000000000000000e+02 5.0000000000000000e+02
-5.0000000000000000e+02 5.0000000000000000e+02
ITEM: ATOMS id type x y z c_q[1] c_q[2] c_q[3] c_q[4] 
1 1 -500 -500 -500 0.798914 0.129929 0.496615 0.313415 
2 1 -166.667 -500 -500 0.310898 0.716345 0.561021 0.274677 
3 1 166.667 -500 -500 0.380804 0.42933 0.639452 0.51163 
4 1 -500 -166.667 -500 0.026917 0.585712 0.6279 0.511818 
5 1 -166.667 -166.667 -500 0.315903 0.576797 0.569362 0.493293 
6 1 166.667 -166.667 -500 0.211722 0.773343 0.556809 0.216974 
7 1 -500 166.667 -500 0.593774 0.618288 0.513606 0.036903 
8 1 -166.667 166.667 -500 0.315728 0.522805 0.557132 0.562668 
9 1 166.667 166.667 -500 0.397773 0.798272 0.356527 0.278258 
10 1 -500 -500 -166.667 0.439415 0.325594 0.701943 0.456266 
11 1 -166.667 -500 -166.667 0.413686 0.404431 0.80572 0.126947 
12 1 166.667 -500 -166.667 0.384643 0.338346 0.484712 0.708962 
13 1 -500 -166.667 -166.667 0.714194 0.423937 0.44109 0.340065 
14 1 -166.667 -166.667 -166.667 0.730423 0.263765 0.589426 0.222456 
15 1 166.667 -166.667 -166.667 0.670556 0.349715 0.09868 0.646774 
ITEM: TIMESTEP
10000
ITEM: NUMBER OF ATOMS
15
ITEM: BOX BOUNDS pp pp pp
-5.0000000000000000e+02 5.0000000000000000e+02
-5.0000000000000000e+02 5.0000000000000000e+02
-5.0000000000000000e+02 5.0000000000000000e+02
ITEM: ATOMS id type x y z c_q[1] c_q[2] c_q[3] c_q[4] 
3 1 164.457 -497.229 -497.235 0.368378 0.418805 0.661481 0.501341 
5 1 -160.302 -169.272 -495.593 0.296965 0.565557 0.577225 0.508692 
4 1 -499.329 -164.672 -498.494 0.0153181 0.585789 0.611667 0.531489 
1 1 -498.399 497.534 -499.974 0.794259 0.133185 0.496401 0.324036 
10 1 -497.135 -496.814 -167.906 0.461238 0.335802 0.69159 0.442944 
11 1 -160.389 -499.995 -167.34 0.423645 0.385425 0.805611 0.151539 
14 1 -167.222 -164.473 -170.957 0.747144 0.224511 0.560331 0.278208 
15 1 168.082 -166.021 -164.212 0.644899 0.347527 0.137608 0.66663 
13 1 493.706 -165.084 -164.034 0.72733 0.432416 0.434621 0.308402 
12 1 167.1 499.377 -165.1 0.401945 0.308396 0.456194 0.731587 
6 1 164.886 -166.582 496.76 0.233936 0.810635 0.500324 0.194476 
7 1 -497.365 171.287 -499.74 0.602943 0.659206 0.447195 0.0438573 
8 1 -162.895 172.249 499.522 0.272582 0.529776 0.533711 0.600157 
9 1 161.274 169.84 497.5 0.37461 0.7709 0.431258 0.281777 
2 1 -160.311 499.499 494.1 0.340857 0.677653 0.587308 0.282263 
ITEM: TIMESTEP
20000
ITEM: NUMBER OF ATOMS
15
ITEM: BOX BOUNDS pp pp pp
-5.0000000000000000e+02 5.0000000000000000e+02
-5.0000000000000000e+02 5.0000000000000000e+02
-5.0000000000000000e+02 5.0000000000000000e+02
ITEM: ATOMS id type x y z c_q[1] c_q[2] c_q[3] c_q[4] 
5 1 -157.896 -169.573 -497.301 0.245024 0.54451 0.599384 0.533114 
4 1 495.18 -162.975 -499.196 0.0344671 0.560955 0.65146 0.509649 
7 1 -496.236 169.465 -498.712 0.590092 0.686842 0.42004 0.0600399 
1 1 -498.329 498.748 -496.288 0.76135 0.116738 0.514432 0.376932 
14 1 -166.875 -163.986 -169.536 0.76115 0.267869 0.519666 0.280792 
11 1 -159.482 496.049 -168.138 0.433502 0.401329 0.791478 0.15676 
12 1 166.341 499.95 -168.626 0.367546 0.273296 0.456672 0.762673 
10 1 -494.519 -491.091 -165.609 0.464626 0.318036 0.66446 0.491393 
15 1 164.163 -163.712 -159.264 0.640949 0.393458 0.137083 0.644657 
13 1 497.338 -164.577 -165.845 0.745791 0.463538 0.41119 0.244646 
2 1 -163.53 -494.461 490.519 0.360571 0.679159 0.565521 0.298191 
3 1 162.549 -498.573 497.478 0.41866 0.476865 0.619613 0.461956 
6 1 171.958 -164.535 496.202 0.237989 0.818653 0.482908 0.199919 
8 1 -164.786 170.84 499.028 0.284452 0.527476 0.52325 0.60586 
9 1 162.61 168.996 499.172 0.38736 0.783559 0.375738 0.307911 
ITEM: TIMESTEP
30000
ITEM: NUMBER OF ATOMS
15
ITEM: BOX BOUNDS pp pp pp
-5.0000000000000000e+02 5.0000000000000000e+02
-5.0000000000000000e+02 5.0000000000000000e+02
-5.0000000000000000e+02 5.0000000000000000e+02
ITEM: ATOMS id type x y z c_q[1] c_q[2] c_q[3] c_q[4] 
1 1 -496.97 -492.051 -492.48 0.78044 0.134727 0.512298 0.332134 
4 1 491.761 -164.45 -493.882 0.062493 0.577548 0.631692 0.513321 
7 1 -491.081 173.109 -499.09 0.573174 0.689245 0.437918 0.0681204 
12 1 167.991 -497.4 -170.98 0.371824 0.266864 0.438059 0.773715 
14 1 -170.975 -161.726 -171.885 0.750213 0.247206 0.540327 0.290029 
11 1 -160.661 495.007 -166.223 0.412474 0.381625 0.820435 0.105424 
10 1 -495.213 -493.983 -165.674 0.447432 0.341945 0.682593 0.465774 
15 1 165.983 -163.883 -160.15 0.664538 0.401931 0.168226 0.607075 
13 1 496.564 -166.795 -161.792 0.776704 0.459743 0.37573 0.210225 
2 1 -162.31 -489.736 490.526 0.341312 0.660257 0.583559 0.327147 
3 1 162.746 -495.042 494.478 0.423804 0.453127 0.628487 0.469116 
5 1 -153.985 -167.007 499.088 0.260191 0.550872 0.593539 0.525882 
6 1 168.203 -162.996 490.064 0.266128 0.804506 0.492808 0.197703 
8 1 -164.821 173.921 497.329 0.306782 0.502845 0.517364 0.620778 
9 1 161.433 170.657 496.453 0.375366 0.783957 0.398524 0.29273 
ITEM: TIMESTEP
40000
ITEM: NUMBER OF ATOMS
15
ITEM: BOX BOUNDS pp pp pp
-5.0000000000000000e+02 5.0000000000000000e+02
-5.0000000000000000e+02 5.0000000000000000e+02
-5.0000000000000000e+02 5.0000000000000000e+02
ITEM: ATOMS id type x y z c_q[1] c_q[2] c_q[3] c_q[4] 
1 1 -495.128 -495.124 -496.783 0.793966 0.136019 0.49551 0.324942 
5 1 -149.144 -160.128 -499.508 0.272501 0.565287 0.571427 0.528834 
4 1 493.233 -164.899 -491.503 0.0500919 0.605722 0.621779 0.493946 
7 1 -493.745 175.855 -498.798 0.545644 0.680114 0.483518 0.0769942 
9 1 158.203 169.432 499.472 0.394883 0.792125 0.340557 0.317216 
12 1 166.264 -495.04 -171.676 0.331337 0.2181 0.424175 0.814078 
14 1 -172.676 -161.729 -174.016 0.751169 0.283095 0.528117 0.276939 
11 1 -163.115 495.964 -168.459 0.401657 0.394778 0.822983 0.0743108 
10 1 -495.072 -490.099 -162.005 0.408656 0.318291 0.719925 0.461952 
15 1 166.503 -160.781 -162.8 0.620607 0.417888 0.178728 0.638962 
13 1 494.02 -167.2 -159.527 0.807045 0.406172 0.346704 0.251988 
2 1 -160.483 -490.573 491.242 0.339692 0.688505 0.532699 0.356092 
6 1 168.133 -154.539 489.902 0.244145 0.805617 0.513254 0.167168 
8 1 -162.424 176.344 498.008 0.314054 0.479965 0.468765 0.671761 
3 1 156.714 499.561 494.698 0.428928 0.46092 0.611689 0.478967 
ITEM: TIMESTEP
50000
ITEM: NUMBER OF ATOMS
15
ITEM: BOX BOUNDS pp pp pp
-5.0000000000000000e+02 5.0000000000000000e+02
-5.0000000000000000e+02 5.0000000000000000e+02
-5.0000000000000000e+02 5.0000000000000000e+02
ITEM: ATOMS id type x y z c_q[1] c_q[2] c_q[3] c_q[4] 
5 1 -149.752 -160.882 -496.368 0.266331 0.581697 0.587232 0.495837 
4 1 492.453 -165.283 -484.949 0.0264276 0.606787 0.587034 0.535259 
7 1 -488.617 175.779 -492.424 0.533174 0.669279 0.50995 0.0879917 
8 1 -158.43 178.558 -493.044 0.299221 0.44395 0.496765 0.683081 
9 1 158.233 168.065 -493.993 0.408829 0.798459 0.320344 0.304469 
12 1 161.749 -490.978 -171.011 0.366095 0.266427 0.433215 0.779305 
14 1 -173.203 -161.306 -177.775 0.727693 0.267313 0.546993 0.31592 
10 1 -496.937 -487.725 -162.77 0.412828 0.265116 0.736029 0.46642 
15 1 167.394 -162.649 -162.684 0.612787 0.415764 0.208443 0.638893 
13 1 498.556 -163.956 -157.123 0.80635 0.381253 0.391792 0.225708 
11 1 -164.39 495.173 -164.129 0.382763 0.391289 0.829078 0.114084 
1 1 -496.586 -491.627 497.778 0.780043 0.130429 0.504513 0.346391 
2 1 -159.504 -487.745 487.499 0.376857 0.692652 0.504206 0.35212 
3 1 153.708 -496.615 495.294 0.430002 0.513257 0.569758 0.476488 
6 1 168.793 -158.017 494.846 0.260133 0.810018 0.505814 0.142667 
ITEM: TIMESTEP
60000
ITEM: NUMBER OF ATOMS
15
ITEM: BOX BOUNDS pp pp pp
-5.0000000000000000e+02 5.0000000000000000e+02
-5.0000000000000000e+02 5.0000000000000000e+02
-5.0000000000000000e+02 5.0000000000000000e+02
ITEM: ATOMS id type x y z c_q[1] c_q[2] c_q[3] c_q[4] 
1 1 -495.266 -495.434 -496.755 0.761003 0.0908327 0.522216 0.374051 
5 1 -150.214 -161.747 -493.089 0.24942 0.600959 0.547886 0.525794 
4 1 497.181 -164.114 -484.007 0.0186394 0.641574 0.563487 0.520113 
9 1 161.06 162.208 -495.216 0.397763 0.812228 0.336756 0.26204 
7 1 -493.241 174.709 -492.316 0.527206 0.687739 0.47773 0.144374 
8 1 -162.715 180.559 -493.958 0.317865 0.435077 0.471417 0.698165 
12 1 161.894 -487.358 -167.059 0.375719 0.274652 0.444701 0.765273 
14 1 -177.335 -160.968 -176.139 0.706646 0.288572 0.54762 0.342769 
11 1 -160.709 495.143 -168.685 0.401275 0.378152 0.824312 0.128408 
10 1 -499.254 -486.743 -160.715 0.461718 0.277733 0.725296 0.428517 
15 1 168.799 -162.015 -163.849 0.608464 0.374749 0.22268 0.663135 
13 1 498.953 -159.832 -160.407 0.832386 0.332359 0.376308 0.234657 
2 1 -158.729 -487.875 487.415 0.362899 0.711151 0.480072 0.363455 
6 1 172.43 -158.693 489.746 0.293317 0.819588 0.477156 0.120674 
3 1 151.229 496.466 499.283 0.446098 0.523383 0.570237 0.449328 
ITEM: TIMESTEP
70000
ITEM: NUMBER OF ATOMS
15
ITEM: BOX BOUNDS pp pp pp
-5.0000000000000000e+02 5.0000000000000000e+02
-5.0000000000000000e+02 5.0000000000000000e+02
-5.0000000000000000e+02 5.0000000000000000e+02
ITEM: ATOMS id type x y z c_q[1] c_q[2] c_q[3] c_q[4] 
5 1 -147.614 -160.227 -498.098 0.231301 0.606932 0.541757 0.53351 
4 1 496.124 -165.22 -482.405 0.0275338 0.625306 0.555521 0.547385 
9 1 161.287 160.385 -492.167 0.398838 0.797405 0.365643 0.267168 
7 1 -487.564 178.551 -489.925 0.553768 0.662388 0.47584 0.16781 
8 1 -161.396 182.455 -491.842 0.311422 0.46543 0.44049 0.701684 
3 1 153.904 496.82 -495.571 0.496062 0.503463 0.543927 0.452317 
12 1 162.421 -482.331 -168.742 0.381351 0.292973 0.474397 0.73735 
14 1 -179.541 -157.76 -178.695 0.683789 0.304818 0.56494 0.346931 
11 1 -161.781 494.889 -171.206 0.416004 0.368372 0.824083 0.110132 
10 1 -499.079 -485.836 -159.806 0.498983 0.306533 0.703864 0.402031 
13 1 -498.424 -160.841 -158.953 0.844642 0.33231 0.358282 0.218596 
15 1 165.189 -166.212 -164.376 0.581621 0.390806 0.247666 0.669066 
1 1 -496.994 498.205 497.387 0.756173 0.0923307 0.547798 0.345825 
2 1 -156.911 -491.469 487.291 0.341971 0.713278 0.481946 0.376853 
6 1 174.382 -156.248 488.179 0.327735 0.797197 0.500832 0.0789535 
ITEM: TIMESTEP
80000
ITEM: NUMBER OF ATOMS
15
ITEM: BOX BOUNDS pp pp pp
-5.0000000000000000e+02 5.0000000000000000e+02
-5.0000000000000000e+02 5.0000000000000000e+02
-5.0000000000000000e+02 5.0000000000000000e+02
ITEM: ATOMS id type x y z c_q[1] c_q[2] c_q[3] c_q[4] 
4 1 496.336 -161.561 -478.536 -0.0146368 0.571944 0.570816 0.588927 
9 1 156.382 158.948 -490.129 0.361755 0.781018 0.373772 0.3456 
7 1 -490.787 183.657 -492.615 0.540299 0.67195 0.481002 0.158735 
8 1 -156.706 181.705 -487.768 0.329286 0.491758 0.465347 0.658177 
1 1 -497.238 497.031 -493.219 0.717711 0.0983846 0.576228 0.378381 
3 1 146.102 498.346 -495.982 0.493361 0.524801 0.540549 0.434725 
12 1 169.67 -489.39 -173.517 0.40849 0.243771 0.489959 0.730515 
15 1 166.416 -167.178 -167.611 0.596675 0.409209 0.220305 0.654212 
14 1 -179.587 -162.643 -178.852 0.702153 0.272881 0.534847 0.382695 
11 1 -163.354 489.987 -175.166 0.423863 0.363958 0.819177 0.129703 
10 1 -493.893 -483.825 -156.702 0.547402 0.250447 0.680272 0.418161 
13 1 499.645 -159.668 -160.486 0.839784 0.306656 0.392697 0.21567 
2 1 -160.141 -494.343 490.303 0.310462 0.74461 0.490932 0.328871 
5 1 -146.8 -158.018 499.092 0.239369 0.617655 0.494951 0.562341 
6 1 175.676 -161.726 490.306 0.323667 0.819472 0.471944 0.0312055 
ITEM: TIMESTEP
90000
ITEM: NUMBER OF ATOMS
15
ITEM: BOX BOUNDS pp pp pp
-5.0000000000000000e+02 5.0000000000000000e+02
-5.0000000000000000e+02 5.0000000000000000e+02
-5.0000000000000000e+02 5.0000000000000000e+02
ITEM: ATOMS id type x y z c_q[1] c_q[2] c_q[3] c_q[4] 
4 1 496.371 -161.589 -476.732 -0.0577945 0.574947 0.565621 0.588361 
9 1 157.075 161.549 -489.163 0.326791 0.754237 0.422015 0.38241 
7 1 -489.526 180.26 -497.59 0.537703 0.671756 0.49275 0.129678 
8 1 -161.999 178.161 -484.993 0.291666 0.525795 0.486536 0.63384 
3 1 146.844 491.59 -490.465 0.497448 0.491679 0.557561 0.447128 
1 1 -499.723 493.298 -488.945 0.721501 0.123496 0.589897 0.34089 
12 1 173.354 -496.508 -176.096 0.379893 0.287157 0.490105 0.730082 
14 1 -178.199 -166.956 -178.26 0.695386 0.253499 0.56044 0.371596 
15 1 162.739 -165.052 -173.553 0.584941 0.402293 0.253855 0.656934 
11 1 -166.006 491.188 -176.543 0.430007 0.355308 0.820962 0.121946 
10 1 -492.629 -484.099 -159.083 0.590947 0.234713 0.669218 0.384499 
13 1 -497.795 -157.66 -160.038 0.828536 0.278865 0.427682 0.229892 
5 1 -149.478 -161.31 494.654 0.20032 0.669535 0.504172 0.507351 
6 1 169.568 -159.17 487.95 0.323223 0.797356 0.505733 0.0631261 
2 1 -163.423 498.486 482.82 0.31038 0.735919 0.545397 0.254223 
ITEM: TIMESTEP
100000
ITEM: NUMBER OF ATOMS
15
ITEM: BOX BOUNDS pp pp pp
-5.0000000000000000e+02 5.0000000000000000e+02
-5.0000000000000000e+02 5.0000000000000000e+02
-5.0000000000000000e+02 5.0000000000000000e+02
ITEM: ATOMS id type x y z c_q[1] c_q[2] c_q[3] c_q[4] 
4 1 494.494 -164.181 -478.292 -0.0850147 0.595494 0.554702 0.574861 
9 1 156.086 163.748 -486.294 0.317275 0.765118 0.405509 0.386645 
7 1 -488.038 185.834 -497.649 0.536154 0.661677 0.502526 0.148964 
8 1 -163.23 178.77 -481.925 0.249232 0.530853 0.495729 0.640571 
3 1 150.103 490.909 -492.145 0.508115 0.529047 0.565105 0.377605 
1 1 498.979 495.349 -490.866 0.758285 0.121908 0.536687 0.34944 
12 1 175.432 -499.357 -181.455 0.430764 0.30247 0.464628 0.712092 
14 1 -180.448 -172.107 -175.653 0.678336 0.228428 0.609093 0.341594 
13 1 -489.72 -153.941 -167.527 0.823707 0.305295 0.429645 0.209062 
15 1 167.882 -159.342 -173.098 0.571169 0.415487 0.289925 0.645817 
11 1 -161.566 493.669 -175.227 0.450189 0.362279 0.811049 0.0910139 
10 1 -486.826 -489.153 -158.59 0.611597 0.245311 0.644529 0.387756 
5 1 -145.995 -158.301 498.111 0.179521 0.702171 0.504546 0.469214 
6 1 170.76 -161.025 493.063 0.287623 0.819468 0.495704 0.00485837 
2 1 -169.701 492.947 481.823 0.29456 0.778134 0.497242 0.245951 
ITEM: TIMESTEP
110000
ITEM: NUMBER OF ATOMS
15
ITEM: BOX BOUNDS pp pp pp
-5.0000000000000000e+02 5.0000000000000000e+02
-5.0000000000000000e+02 5.0000000000000000e+02
-5.0000000000000000e+02 5.0000000000000000e+02
ITEM: ATOMS id type x y z c_q[1] c_q[2] c_q[3] c_q[4] 
5 1 -144.79 -160.852 -499.665 0.18528 0.719303 0.502716 0.442213 
4 1 491.677 -163.812 -481.116 -0.0484666 0.592112 0.542675 0.593766 
9 1 158.309 161.817 -488.25 0.305928 0.734417 0.43369 0.423028 
7 1 -492.972 179.58 -496.666 0.518918 0.655942 0.510549 0.199507 
8 1 -162.294 180.138 -481.153 0.26587 0.555701 0.494373 0.613274 
3 1 148.277 485.911 -496.748 0.498945 0.558279 0.525605 0.403878 
1 1 493.731 495.698 -492.278 0.744375 0.0916219 0.564033 0.345513 
14 1 -182.452 -175.125 -174.574 0.694511 0.250649 0.585546 0.334613 
13 1 -491.127 -155.28 -166.414 0.807749 0.29787 0.466568 0.202805 
15 1 169.734 -164.533 -172.389 0.512418 0.420003 0.315697 0.679235 
11 1 -159.589 494.291 -175.139 0.43867 0.411626 0.794728 0.0808677 
12 1 174.814 496.338 -185.987 0.447583 0.280031 0.469313 0.707811 
10 1 -487.019 -490.15 -155.489 0.603517 0.225525 0.63257 0.429838 
6 1 166.93 -158.732 494.27 0.303408 0.821956 0.481977 0.00543849 
2 1 -170.542 488.413 478.176 0.304609 0.789357 0.467746 0.255623 
ITEM: TIMESTEP
120000
ITEM: NUMBER OF ATOMS
15
ITEM: BOX BOUNDS pp pp pp
-5.0000000000000000e+02 5.0000000000000000e+02
-5.0000000000000000e+02 5.0000000000000000e+02
-5.0000000000000000e+02 5.0000000000000000e+02
ITEM: ATOMS id type x y z c_q[1] c_q[2] c_q[3] c_q[4] 
1 1 493.662 -496.266 -494.592 0.746821 0.134708 0.551031 0.347099 
5 1 -141.332 -165.109 -499.883 0.156825 0.731778 0.515615 0.417191 
4 1 495.834 -164.696 -484.122 -0.0372595 0.592752 0.550489 0.586702 
9 1 163.361 161.654 -489.785 0.368403 0.737188 0.402732 0.398296 
7 1 -490.889 179.647 -497.398 0.548437 0.665157 0.459235 0.214214 
8 1 -162.99 183.524 -480.875 0.304004 0.554073 0.469671 0.616437 
3 1 149.719 486.911 -492.987 0.51245 0.579461 0.500476 0.388771 
14 1 -182.952 -180.606 -173.959 0.726117 0.252303 0.570386 0.289407 
13 1 -492.286 -156.806 -167.971 0.803657 0.315484 0.474984 0.170281 
15 1 175.603 -164.323 -180.969 0.4926 0.416112 0.321047 0.693632 
11 1 -161.582 494.973 -174.922 0.439978 0.428602 0.787498 0.0506741 
12 1 178.358 494.78 -189.415 0.439622 0.257969 0.445893 0.735774 
10 1 -491.207 -499.103 -155.773 0.610152 0.214901 0.638802 0.41649 
6 1 160.829 -155.661 498.893 0.31796 0.803772 0.501881 0.0311009 
2 1 -170.48 485.618 482.573 0.297677 0.799719 0.462808 0.240096 
ITEM: TIMESTEP
130000
ITEM: NUMBER OF ATOMS
15
ITEM: BOX BOUNDS pp pp pp
-5.0000000000000000e+02 5.0000000000000000e+02
-5.0000000000000000e+02 5.0000000000000000e+02
-5.0000000000000000e+02 5.0000000000000000e+02
ITEM: ATOMS id type x y z c_q[1] c_q[2] c_q[3] c_q[4] 
1 1 497.356 -499.046 -495.493 0.755727 0.168406 0.542848 0.325317 
4 1 497.364 -169.479 -482.647 -0.0463653 0.614935 0.564363 0.548816 
6 1 160.806 -156.668 -499.428 0.333365 0.786908 0.513901 0.0744947 
9 1 163.239 162.327 -492.454 0.308814 0.722163 0.431704 0.443562 
7 1 -495.213 178.318 -495.437 0.483103 0.660977 0.506757 0.270034 
8 1 -163.056 181.278 -478.587 0.303123 0.547096 0.431776 0.649901 
3 1 155.955 491.329 -491.508 0.493289 0.57657 0.509747 0.405451 
14 1 -183.277 -183.875 -169.117 0.673733 0.294432 0.616355 0.281957 
13 1 -492.754 -161.156 -175.828 0.802427 0.339408 0.467455 0.149662 
15 1 173.844 -165.094 -180.723 0.512309 0.371724 0.292478 0.716811 
11 1 -161.777 488.433 -178.512 0.409793 0.412044 0.808054 0.0966377 
12 1 177.257 498.933 -189.111 0.435177 0.236094 0.462488 0.735517 
10 1 -491.755 -495.365 -153.397 0.579227 0.208559 0.660536 0.429757 
5 1 -138.86 -165.968 498.529 0.16129 0.719934 0.505828 0.447011 
2 1 -166.761 485.898 484.012 0.327069 0.782529 0.415888 0.328193 
ITEM: TIMESTEP
140000
ITEM: NUMBER OF ATOMS
15
ITEM: BOX BOUNDS pp pp pp
-5.0000000000000000e+02 5.0000000000000000e+02
-5.0000000000000000e+02 5.0000000000000000e+02
-5.0000000000000000e+02 5.0000000000000000e+02
ITEM: ATOMS id type x y z c_q[1] c_q[2] c_q[3] c_q[4] 
5 1 -138.854 -170.771 -499.053 0.183123 0.684723 0.515671 0.481356 
4 1 -499.445 -166.845 -482.533 -0.0250846 0.632077 0.568706 0.525759 
9 1 158.177 165.008 -495.939 0.299157 0.704513 0.43072 0.47817 
7 1 -497.703 174.112 -496.371 0.491643 0.668757 0.488951 0.268286 
8 1 -162.237 176.689 -477.129 0.326833 0.548499 0.375857 0.671611 
1 1 -494.54 497.118 -496.671 0.74501 0.151152 0.558771 0.331493 
3 1 157.969 490.945 -491.907 0.535955 0.577344 0.459477 0.410251 
14 1 -186.142 -184.023 -173.603 0.701318 0.29241 0.595767 0.260213 
15 1 168.908 -169.205 -176.371 0.514104 0.387534 0.347317 0.681825 
13 1 -490.638 -165.931 -176.961 0.815964 0.300106 0.468038 0.158367 
11 1 -155.201 490.83 -177.846 0.399009 0.427163 0.808882 0.063515 
12 1 178.1 492.097 -188.667 0.468157 0.251993 0.428328 0.73066 
10 1 -487.115 -498.118 -159.14 0.574497 0.27697 0.642066 0.425432 
6 1 163.144 -161.441 495.843 0.363624 0.78907 0.493567 0.0392086 
2 1 -161.432 490.016 480.97 0.349754 0.793407 0.40549 0.289406 
ITEM: TIMESTEP
150000
ITEM: NUMBER OF ATOMS
15
ITEM: BOX BOUNDS pp pp pp
-5.0000000000000000e+02 5.0000000000000000e+02
-5.0000000000000000e+02 5.0000000000000000e+02
-5.0000000000000000e+02 5.0000000000000000e+02
ITEM: ATOMS id type x y z c_q[1] c_q[2] c_q[3] c_q[4] 
4 1 -499.825 -166.529 -484.557 -0.0196111 0.629741 0.555304 0.542844 
6 1 158.09 -167.095 -498.087 0.390195 0.786253 0.478105 0.0311471 
9 1 157.047 159.487 -498.801 0.258792 0.6984 0.454484 0.488577 
8 1 -163.665 176.898 -473.202 0.353073 0.593163 0.348033 0.634326 
3 1 162.157 488.048 -496.158 0.546508 0.582917 0.468273 0.377169 
14 1 -182.275 -179.145 -172.54 0.683904 0.321092 0.599357 0.264475 
15 1 170.634 -170.263 -176.953 0.516885 0.425534 0.333128 0.66391 
13 1 -496.234 -161.257 -178.134 0.786071 0.324091 0.500993 0.161442 
11 1 -148.741 492.254 -177.566 0.414024 0.488557 0.765876 0.0577096 
12 1 170.093 487.351 -190.174 0.463368 0.221371 0.412172 0.752595 
10 1 -488.902 -499.401 -154.542 0.574148 0.285368 0.670213 0.373809 
5 1 -131.647 -173.775 -499.278 0.213623 0.704504 0.525576 0.42639 
7 1 -489.087 175.738 -499.629 0.486189 0.688428 0.48343 0.236607 
1 1 -491.234 497.168 499.892 0.762444 0.147523 0.520832 0.354471 
2 1 -161.042 492.156 474.646 0.393508 0.769968 0.400735 0.30284 
ITEM: TIMESTEP
160000
ITEM: NUMBER OF ATOMS
15
ITEM: BOX BOUNDS pp pp pp
-5.0000000000000000e+02 5.0000000000000000e+02
-5.0000000000000000e+02 5.0000000000000000e+02
-5.0000000000000000e+02 5.0000000000000000e+02
ITEM: ATOMS id type x y z c_q[1] c_q[2] c_q[3] c_q[4] 
6 1 157.092 -169.114 -497.935 0.345569 0.801962 0.487276 -0.00124484 
4 1 498.758 -166.53 -488.845 -0.026203 0.635871 0.567509 0.522413 
9 1 161.821 158.605 -495.804 0.247643 0.716337 0.426294 0.493768 
7 1 -489.09 179.057 -494.025 0.519491 0.660993 0.48275 0.245296 
8 1 -163.281 180.583 -464.684 0.384371 0.571885 0.4087 0.598473 
1 1 -496.066 495.288 -497.618 0.77008 0.170657 0.522466 0.323856 
3 1 158.739 483.497 -491.456 0.54836 0.575213 0.471492 0.382264 
14 1 -185.06 -180.502 -171.398 0.673512 0.365066 0.587552 0.26056 
13 1 -498.73 -159.467 -178.209 0.788965 0.303003 0.511063 0.156647 
15 1 165.512 -165.571 -179.341 0.554215 0.409711 0.309206 0.655267 
11 1 -148.676 493.961 -172.525 0.434674 0.475429 0.76397 0.0370932 
12 1 170.66 486.726 -192.876 0.479371 0.237739 0.424877 0.730181 
10 1 -488.796 -499.942 -156.182 0.614516 0.250155 0.648864 0.372516 
5 1 -133.869 -181.706 498.982 0.176255 0.716995 0.51541 0.434977 
2 1 -155.13 495.72 483.824 0.393356 0.760424 0.394074 0.334263 
ITEM: TIMESTEP
170000
ITEM: NUMBER OF ATOMS
15
ITEM: BOX BOUNDS pp pp pp
-5.0000000000000000e+02 5.0000000000000000e+02
-5.0000000000000000e+02 5.0000000000000000e+02
-5.0000000000000000e+02 5.0000000000000000e+02
ITEM: ATOMS id type x y z c_q[1] c_q[2] c_q[3] c_q[4] 
6 1 153.515 -172.55 -494.494 0.348229 0.776214 0.524394 0.0351981 
4 1 498.921 -165.526 -493.873 -0.00321248 0.640309 0.567164 0.517996 
9 1 165.831 158.667 -493.601 0.242617 0.708401 0.389349 0.536388 
7 1 -491.518 179.619 -488.767 0.511051 0.698549 0.469314 0.174933 
8 1 -168.513 177.908 -466.676 0.453678 0.534133 0.372271 0.608517 
1 1 -496.426 490.954 -498.417 0.773495 0.187918 0.526026 0.29948 
3 1 163.854 479.842 -492.344 0.514101 0.569208 0.510017 0.38934 
14 1 -183.454 -178.254 -174.295 0.675805 0.409752 0.56572 0.23527 
13 1 -498.229 -160.609 -175.258 0.798767 0.302294 0.482461 0.194477 
15 1 166.932 -164.141 -185.067 0.546877 0.41858 0.334276 0.643409 
11 1 -148.924 494.167 -176.513 0.440283 0.46317 0.768883 0.0210555 
12 1 168.552 490.08 -196.336 0.513375 0.217286 0.424913 0.713219 
10 1 -486.557 494.662 -151.74 0.631307 0.257974 0.621758 0.38512 
5 1 -136.76 -180.316 499.843 0.127522 0.698285 0.551482 0.438182 
2 1 -150.682 490.777 484.297 0.407457 0.772388 0.352522 0.33634 
ITEM: TIMESTEP
180000
ITEM: NUMBER OF ATOMS
15
ITEM: BOX BOUNDS pp pp pp
-5.0000000000000000e+02 5.0000000000000000e+02
-5.0000000000000000e+02 5.0000000000000000e+02
-5.0000000000000000e+02 5.0000000000000000e+02
ITEM: ATOMS id type x y z c_q[1] c_q[2] c_q[3] c_q[4] 
5 1 -136.887 -179.697 -497.492 0.0653764 0.718283 0.531505 0.444182 
6 1 151.637 -176.185 -494.108 0.312585 0.817627 0.48242 0.0323631 
4 1 499.277 -169.473 -496.884 -0.0261989 0.671992 0.523612 0.52304 
9 1 169.9 159.351 -496.055 0.253529 0.698697 0.40278 0.534148 
7 1 -492.354 179.298 -481.262 0.542545 0.705599 0.417174 0.183688 
8 1 -167.587 175.059 -463.714 0.436326 0.55254 0.391897 0.592229 
1 1 -499.117 493.689 -498.161 0.748233 0.200786 0.542507 0.324835 
3 1 167.39 487.518 -488.259 0.48625 0.594213 0.520894 0.373017 
14 1 -178.613 -176.529 -174.767 0.676292 0.458768 0.516327 0.256062 
13 1 -492.44 -158.924 -175.248 0.777253 0.315005 0.518625 0.166363 
15 1 166.438 -166.533 -184.818 0.556132 0.403807 0.300301 0.66142 
11 1 -151.445 488.871 -175.093 0.478285 0.456202 0.750358 -0.00929036 
12 1 164.698 494.342 -201.242 0.466392 0.186633 0.458796 0.732907 
10 1 -486.18 489.159 -152.141 0.61679 0.330286 0.592552 0.399202 
2 1 -151.375 492.351 486.94 0.387658 0.757387 0.369352 0.373718 
ITEM: TIMESTEP
190000
ITEM: NUMBER OF ATOMS
15
ITEM: BOX BOUNDS pp pp pp
-5.0000000000000000e+02 5.0000000000000000e+02
-5.0000000000000000e+02 5.0000000000000000e+02
-5.0000000000000000e+02 5.0000000000000000e+02
ITEM: ATOMS id type x y z c_q[1] c_q[2] c_q[3] c_q[4] 
4 1 -497.111 -171.121 -496.967 -0.0447672 0.697756 0.492788 0.51797 
5 1 -128.259 -180.593 -492.199 0.020271 0.725525 0.525085 0.444396 
6 1 152.544 -178.827 -497.005 0.263995 0.847163 0.460697 0.0194641 
9 1 169.306 156.219 -489.861 0.211652 0.709136 0.401734 0.539388 
7 1 -495.604 180.754 -479.342 0.53883 0.699744 0.421853 0.205086 
8 1 -169.776 173.947 -457.874 0.453387 0.573805 0.372754 0.571177 
3 1 169.843 487.758 -488.987 0.507705 0.584666 0.533735 0.339893 
14 1 -182.751 -173.296 -177.164 0.722012 0.419726 0.485563 0.258373 
15 1 163.005 -169.648 -183.282 0.548148 0.423528 0.349755 0.630737 
13 1 -491.346 -165.486 -180.724 0.775922 0.313276 0.522953 0.162244 
11 1 -146.828 493.603 -174.471 0.483221 0.432397 0.761122 -0.0149465 
12 1 163.931 496.021 -202.091 0.431795 0.213382 0.476379 0.735584 
10 1 -489.138 489.012 -156.704 0.618071 0.325856 0.622126 0.353222 
2 1 -146.484 496.277 488.722 0.376005 0.765003 0.351327 0.387246 
1 1 500.286 494.206 498.959 0.740065 0.23585 0.54994 0.306992 
ITEM: TIMESTEP
200000
ITEM: NUMBER OF ATOMS
15
ITEM: BOX BOUNDS pp pp pp
-5.0000000000000000e+02 5.0000000000000000e+02
-5.0000000000000000e+02 5.0000000000000000e+02
-5.0000000000000000e+02 5.0000000000000000e+02
ITEM: ATOMS id type x y z c_q[1] c_q[2] c_q[3] c_q[4] 
5 1 -122.322 -181.271 -490.986 0.0107451 0.694912 0.559267 0.451888 
6 1 152.844 -174.267 -498.547 0.252515 0.849916 0.462405 -0.0077248 
4 1 499.268 -176.801 -491.097 -0.008451 0.674244 0.494436 0.548503 
9 1 172.41 153.693 -493.067 0.218154 0.718953 0.395099 0.528595 
7 1 -493.143 179.132 -473.326 0.553249 0.694033 0.406165 0.217402 
8 1 -167.302 170.937 -453.858 0.479152 0.57811 0.343228 0.564267 
3 1 173.203 492.826 -485.148 0.500967 0.616042 0.546027 0.26717 
1 1 495.134 492.22 -499.346 0.736674 0.288918 0.560089 0.245229 
13 1 -489.353 -170.571 -184.944 0.818797 0.258823 0.498596 0.11825 
14 1 -182.496 -176.209 -175.287 0.711292 0.419067 0.506923 0.247942 
15 1 162.45 -174.264 -183.651 0.532378 0.445367 0.351788 0.628066 
11 1 -141.969 496.351 -178.363 0.500577 0.394727 0.769255 0.0431338 
12 1 154.409 496.482 -199.009 0.441213 0.206055 0.484991 0.726399 
10 1 -488.335 494.139 -157.987 0.651547 0.32706 0.601333 0.326981 
2 1 -147.799 -499.221 489.67 0.351795 0.784676 0.324931 0.393629 
ITEM: TIMESTEP
210000
ITEM: NUMBER OF ATOMS
15
ITEM: BOX BOUNDS pp pp pp
-5.0000000000000000e+02 5.0000000000000000e+02
-5.0000000000000000e+02 5.0000000000000000e+02
-5.0000000000000000e+02 5.0000000000000000e+02
ITEM: ATOMS id type x y z c_q[1] c_q[2] c_q[3] c_q[4] 
4 1 -494.89 -176.848 -492.929 -0.0382053 0.63665 0.544187 0.545049 
5 1 -121.18 -180.553 -490.869 0.0250465 0.676456 0.52638 0.514494 
9 1 173.629 155.864 -488.688 0.156621 0.734098 0.378815 0.541359 
7 1 -488.326 179.191 -472.696 0.5683 0.648325 0.441134 0.249218 
8 1 -169.905 172.724 -454.545 0.522646 0.580771 0.334473 0.526949 
3 1 170.692 495.769 -483.721 0.474014 0.615538 0.585906 0.230517 
12 1 159.647 -499.884 -194.319 0.372416 0.238636 0.533445 0.720968 
13 1 -490.758 -172.369 -187.54 0.803522 0.28092 0.505234 0.142039 
14 1 -183.132 -179.986 -175.852 0.693876 0.416796 0.54027 0.230055 
15 1 168.219 -176.153 -181.837 0.544843 0.469771 0.367532 0.589391 
11 1 -134.696 495.537 -176.61 0.479903 0.388062 0.785112 0.0519569 
10 1 -486.653 495.97 -164.162 0.637704 0.304485 0.61353 0.352426 
2 1 -151.297 -498.229 494.711 0.380156 0.776469 0.324962 0.383376 
6 1 150.023 -170.08 495.124 0.263925 0.848471 0.45802 0.0256533 
1 1 499.942 494.833 491.543 0.731225 0.345297 0.525074 0.265289 
ITEM: TIMESTEP
220000
ITEM: NUMBER OF ATOMS
15
ITEM: BOX BOUNDS pp pp pp
-5.0000000000000000e+02 5.0000000000000000e+02
-5.0000000000000000e+02 5.0000000000000000e+02
-5.0000000000000000e+02 5.0000000000000000e+02
ITEM: ATOMS id type x y z c_q[1] c_q[2] c_q[3] c_q[4] 
5 1 -122.011 -184.903 -491.091 0.0534853 0.651121 0.526665 0.543879 
4 1 495.835 -182.905 -492.47 -0.0635835 0.643474 0.591121 0.482156 
9 1 175.464 154.975 -492.831 0.144124 0.754157 0.376609 0.518306 
7 1 -490.332 179.842 -476.363 0.589675 0.636982 0.429911 0.248424 
8 1 -166.593 175.704 -459.004 0.528346 0.597145 0.338857 0.499444 
3 1 172.045 492.014 -487.764 0.482958 0.600824 0.596664 0.223055 
12 1 158.176 -491.997 -191.102 0.312431 0.206527 0.53449 0.757663 
13 1 -493.096 -171.125 -188.829 0.826309 0.244338 0.487465 0.141032 
14 1 -180.076 -183.618 -176.946 0.669026 0.490488 0.531217 0.172144 
15 1 163.74 -179.893 -178.689 0.57856 0.485605 0.351781 0.552907 
11 1 -138.752 497.206 -177.221 0.437635 0.405277 0.80131 0.0461363 
10 1 -480.99 496.254 -161.986 0.656982 0.300909 0.599026 0.34496 
6 1 153.715 -171.487 495.164 0.223858 0.867491 0.444217 0.00422768 
2 1 -154.157 498.504 497.596 0.332816 0.778831 0.342505 0.406627 
1 1 498.804 500.641 495.127 0.739062 0.320706 0.550199 0.21958 
ITEM: TIMESTEP
230000
ITEM: NUMBER OF ATOMS
15
ITEM: BOX BOUNDS pp pp pp
-5.0000000000000000e+02 5.0000000000000000e+02
-5.0000000000000000e+02 5.0000000000000000e+02
-5.0000000000000000e+02 5.0000000000000000e+02
ITEM: ATOMS id type x y z c_q[1] c_q[2] c_q[3] c_q[4] 
5 1 -124.169 -183.279 -488.763 0.053792 0.632693 0.52788 0.564047 
4 1 497.953 -180.914 -494.033 -0.0116973 0.678468 0.559127 0.476363 
9 1 178.177 159.563 -489.146 0.16781 0.772694 0.362279 0.493495 
7 1 -490.823 180.902 -477.07 0.573655 0.653193 0.426351 0.249969 
8 1 -171.936 181.064 -459.822 0.497647 0.605579 0.359349 0.506448 
2 1 -157.892 498.709 -499.246 0.348257 0.785597 0.343691 0.378722 
3 1 170.607 490.948 -485.953 0.45626 0.57987 0.632231 0.236349 
12 1 157.956 -493.428 -193.303 0.297228 0.182506 0.519568 0.779997 