ITEM: TIMESTEP
0
ITEM: NUMBER OF ATOMS
45
ITEM: BOX BOUNDS
-500.000000 500.000000
-500.000000 500.000000
-500.000000 500.000000
ITEM: ATOMS id type x y z c_q[1] c_q[2] c_q[3] c_q[4]
1 1 -500.000000 -500.000000 -500.000000 0.583375 0.206235 0.523039 0.586150
2 1 -250.000000 -500.000000 -500.000000 0.502805 0.577926 0.548323 0.335457
3 1 0.000000 -500.000000 -500.000000 0.639877 0.100843 0.697106 0.307296
4 1 250.000000 -500.000000 -500.000000 0.128646 0.777014 0.258057 0.559559
5 1 -500.000000 -250.000000 -500.000000 0.164402 0.184093 0.691184 0.679225
6 1 -250.000000 -250.000000 -500.000000 0.254234 0.376137 0.439222 0.775223
7 1 0.000000 -250.000000 -500.000000 0.355794 0.561426 0.462937 0.586430
8 1 250.000000 -250.000000 -500.000000 0.448945 0.552643 0.613542 0.341470
9 1 -500.000000 0.000000 -500.000000 0.544241 0.599597 0.172948 0.560690
10 1 -250.000000 0.000000 -500.000000 0.014137 0.343362 0.878443 0.332026
11 1 0.000000 0.000000 -500.000000 0.734807 0.480226 0.123795 0.462728
12 1 250.000000 0.000000 -500.000000 0.063974 0.542626 0.224256 0.806954
13 1 -500.000000 250.000000 -500.000000 0.254811 0.315739 0.648940 0.643629
14 1 -250.000000 250.000000 -500.000000 0.173544 0.800631 0.344704 0.458314
15 1 0.000000 250.000000 -500.000000 0.500348 0.168561 0.747289 0.403483
16 1 250.000000 250.000000 -500.000000 0.466797 0.581136 0.077069 0.662149
17 1 -500.000000 -500.000000 -250.000000 0.064690 0.291948 0.636276 0.711150
18 1 -250.000000 -500.000000 -250.000000 0.491746 0.091795 0.844311 0.192087
19 1 0.000000 -500.000000 -250.000000 0.274312 0.525066 0.767662 0.244447
20 1 250.000000 -500.000000 -250.000000 0.176344 0.318518 0.704333 0.609396
21 1 -500.000000 -250.000000 -250.000000 0.437721 0.325865 0.591872 0.593212
22 1 -250.000000 -250.000000 -250.000000 0.624490 0.770983 0.112104 0.055047
23 1 0.000000 -250.000000 -250.000000 0.478777 0.742384 0.459051 0.094397
24 1 250.000000 -250.000000 -250.000000 0.078426 0.852041 0.416146 0.307730
25 1 -500.000000 0.000000 -250.000000 0.606253 0.635146 0.433520 0.202747
26 1 -250.000000 0.000000 -250.000000 0.638942 0.093445 0.510424 0.567881
27 1 0.000000 0.000000 -250.000000 0.207583 0.543051 0.793918 0.178045
28 1 250.000000 0.000000 -250.000000 0.314519 0.347955 0.883165 0.005083
29 1 -500.000000 250.000000 -250.000000 0.260074 0.784749 0.261072 0.498369
30 1 -250.000000 250.000000 -250.000000 0.247484 0.304939 0.277662 0.876737
31 1 0.000000 250.000000 -250.000000 0.455901 0.877623 0.009911 0.147766
32 1 250.000000 250.000000 -250.000000 0.614054 0.609919 0.253506 0.432055
33 1 -500.000000 -500.000000 0.000000 0.522821 0.730943 0.338508 0.278913
34 1 -250.000000 -500.000000 0.000000 0.048652 0.297493 0.760765 0.574776
35 1 0.000000 -500.000000 0.000000 0.465000 0.508321 0.187717 0.700105
36 1 250.000000 -500.000000 0.000000 0.807069 0.125767 0.491084 0.302752
37 1 -500.000000 -250.000000 0.000000 0.033741 0.714963 0.036546 0.697390
38 1 -250.000000 -250.000000 0.000000 0.628755 0.375687 0.644174 0.220378
39 1 0.000000 -250.000000 0.000000 0.433602 0.684518 0.098435 0.577699
40 1 250.000000 -250.000000 0.000000 0.622959 0.675037 0.273716 0.285178
41 1 -500.000000 0.000000 0.000000 0.415561 0.818342 0.173416 0.357144
42 1 -250.000000 0.000000 0.000000 0.594177 0.619687 0.467178 0.211394
43 1 0.000000 0.000000 0.000000 0.802896 0.561246 0.161772 0.119128
44 1 250.000000 0.000000 0.000000 0.274443 0.869838 0.409345 0.022334
45 1 -500.000000 250.000000 0.000000 0.678289 0.463638 0.074665 0.565145
