ITEM: TIMESTEP
0
ITEM: NUMBER OF ATOMS
50
ITEM: BOX BOUNDS
-500.000000 500.000000
-500.000000 500.000000
-500.000000 500.000000
ITEM: ATOMS id type x y z c_q[1] c_q[2] c_q[3] c_q[4]
1 1 -500.000000 -500.000000 -500.000000 0.143472 0.802550 0.331627 0.474713
2 1 -250.000000 -500.000000 -500.000000 0.074083 0.313132 0.435896 0.840508
3 1 0.000000 -500.000000 -500.000000 0.094381 0.204530 0.274929 0.934705
4 1 250.000000 -500.000000 -500.000000 0.644813 0.634267 0.348560 0.245820
5 1 -500.000000 -250.000000 -500.000000 0.720573 0.377355 0.241409 0.529244
6 1 -250.000000 -250.000000 -500.000000 0.178668 0.344798 0.579795 0.716261
7 1 0.000000 -250.000000 -500.000000 0.562830 0.588157 0.166067 0.556521
8 1 250.000000 -250.000000 -500.000000 0.517085 0.695442 0.333124 0.371500
9 1 -500.000000 0.000000 -500.000000 0.324728 0.741162 0.568757 0.147463
10 1 -250.000000 0.000000 -500.000000 0.729856 0.011567 0.009985 0.683430
11 1 0.000000 0.000000 -500.000000 0.451096 0.275473 0.647804 0.548613
12 1 250.000000 0.000000 -500.000000 0.385977 0.787062 0.436783 0.201930
13 1 -500.000000 250.000000 -500.000000 0.123914 0.689465 0.338830 0.628074
14 1 -250.000000 250.000000 -500.000000 0.504364 0.647415 0.546942 0.165302
15 1 0.000000 250.000000 -500.000000 0.056304 0.676378 0.485899 0.550676
16 1 250.000000 250.000000 -500.000000 0.129866 0.795843 0.559402 0.191931
17 1 -500.000000 -500.000000 -250.000000 0.438665 0.410779 0.239283 0.762612
18 1 -250.000000 -500.000000 -250.000000 0.460983 0.187458 0.640327 0.585094
19 1 0.000000 -500.000000 -250.000000 0.335921 0.406468 0.634687 0.564901
20 1 250.000000 -500.000000 -250.000000 0.488186 0.849394 0.166639 0.111512
21 1 -500.000000 -250.000000 -250.000000 0.798325 0.190376 0.527110 0.220431
22 1 -250.000000 -250.000000 -250.000000 0.653771 0.374148 0.461351 0.468776
23 1 0.000000 -250.000000 -250.000000 0.255367 0.734482 0.506232 0.372898
24 1 250.000000 -250.000000 -250.000000 0.423891 0.404987 0.571797 0.573890
25 1 -500.000000 0.000000 -250.000000 0.433193 0.600666 0.578076 0.342596
26 1 -250.000000 0.000000 -250.000000 0.702078 0.127012 0.690009 0.121830
27 1 0.000000 0.000000 -250.000000 0.481153 0.581601 0.645447 0.116751
28 1 250.000000 0.000000 -250.000000 0.141041 0.620092 0.546463 0.544951
29 1 -500.000000 250.000000 -250.000000 0.500744 0.601763 0.192561 0.591656
30 1 -250.000000 250.000000 -250.000000 0.143309 0.735811 0.657234 0.078028
31 1 0.000000 250.000000 -250.000000 0.428513 0.540681 0.527952 0.495285
32 1 250.000000 250.000000 -250.000000 0.155701 0.210959 0.755222 0.600744
33 1 -500.000000 -500.000000 0.000000 0.068377 0.289969 0.662113 0.687640
34 1 -250.000000 -500.000000 0.000000 0.349902 0.082877 0.933061 0.009836
35 1 0.000000 -500.000000 0.000000 0.527985 0.512654 0.660558 0.148594
36 1 250.000000 -500.000000 0.000000 0.393846 0.321565 0.577937 0.638333
37 1 -500.000000 -250.000000 0.000000 0.478116 0.802575 0.356293 0.018259
38 1 -250.000000 -250.000000 0.000000 0.854946 0.271241 0.330506 0.293704
39 1 0.000000 -250.000000 0.000000 0.516577 0.421743 0.528543 0.525285
40 1 250.000000 -250.000000 0.000000 0.457896 0.879208 0.123059 0.046702
41 1 -500.000000 0.000000 0.000000 0.585841 0.062525 0.697864 0.407267
42 1 -250.000000 0.000000 0.000000 0.486929 0.687938 0.183489 0.505938
43 1 0.000000 0.000000 0.000000 0.566208 0.384715 0.673495 0.278939
44 1 250.000000 0.000000 0.000000 0.421800 0.593039 0.682900 0.063542
45 1 -500.000000 250.000000 0.000000 0.833721 0.142976 0.527094 0.081480
46 1 -250.000000 250.000000 0.000000 0.418487 0.087926 0.624258 0.653788
47 1 0.000000 250.000000 0.000000 0.669457 0.595662 0.217048 0.387176
48 1 250.000000 250.000000 0.000000 0.724077 0.088616 0.668342 0.145525
49 1 -500.000000 -500.000000 250.000000 0.602173 0.369775 0.539692 0.457589
50 1 -250.000000 -500.000000 250.000000 0.029411 0.922940 0.363090 0.124431
