LAMMPS data file

25 atoms
25 ellipsoids
0 bonds
0 angles
0 dihedrals

1 atom types
0 bond types
0 angle types
0 dihedral types

-500.000000 500.000000 xlo xhi
-500.000000 500.000000 ylo yhi
-500.000000 500.000000 zlo zhi

Masses

1 203166.000000

Atoms

1 1 -500.000000 -500.000000 -500.000000 1 1.000000 3 0.000000
2 1 -166.666667 -500.000000 -500.000000 1 1.000000 4 0.000000
3 1 166.666667 -500.000000 -500.000000 1 1.000000 5 0.000000
4 1 -500.000000 -166.666667 -500.000000 1 1.000000 6 0.000000
5 1 -166.666667 -166.666667 -500.000000 1 1.000000 7 0.000000
6 1 166.666667 -166.666667 -500.000000 1 1.000000 8 0.000000
7 1 -500.000000 166.666667 -500.000000 1 1.000000 9 0.000000
8 1 -166.666667 166.666667 -500.000000 1 1.000000 10 0.000000
9 1 166.666667 166.666667 -500.000000 1 1.000000 11 0.000000
10 1 -500.000000 -500.000000 -166.666667 1 1.000000 12 0.000000
11 1 -166.666667 -500.000000 -166.666667 1 1.000000 13 0.000000
12 1 166.666667 -500.000000 -166.666667 1 1.000000 14 0.000000
13 1 -500.000000 -166.666667 -166.666667 1 1.000000 15 0.000000
14 1 -166.666667 -166.666667 -166.666667 1 1.000000 16 0.000000
15 1 166.666667 -166.666667 -166.666667 1 1.000000 17 0.000000
16 1 -500.000000 166.666667 -166.666667 1 1.000000 18 0.000000
17 1 -166.666667 166.666667 -166.666667 1 1.000000 19 0.000000
18 1 166.666667 166.666667 -166.666667 1 1.000000 20 0.000000
19 1 -500.000000 -500.000000 166.666667 1 1.000000 21 0.000000
20 1 -166.666667 -500.000000 166.666667 1 1.000000 22 0.000000
21 1 166.666667 -500.000000 166.666667 1 1.000000 23 0.000000
22 1 -500.000000 -166.666667 166.666667 1 1.000000 24 0.000000
23 1 -166.666667 -166.666667 166.666667 1 1.000000 25 0.000000
24 1 166.666667 -166.666667 166.666667 1 1.000000 26 0.000000
25 1 -500.000000 166.666667 166.666667 1 1.000000 27 0.000000

Ellipsoids

1 55.000000 110.000000 110.000000 0.615532 0.428767 0.258239 0.608763
2 55.000000 110.000000 110.000000 0.286539 0.858260 0.328851 0.270447
3 55.000000 110.000000 110.000000 0.187940 0.635105 0.323090 0.675968
4 55.000000 110.000000 110.000000 0.574657 0.050633 0.084947 0.812397
5 55.000000 110.000000 110.000000 0.072262 0.616673 0.026719 0.783441
6 55.000000 110.000000 110.000000 0.826040 0.299911 0.113263 0.463554
7 55.000000 110.000000 110.000000 0.629555 0.112890 0.608153 0.470177
8 55.000000 110.000000 110.000000 0.464366 0.423917 0.062593 0.775074
9 55.000000 110.000000 110.000000 0.434041 0.598414 0.578294 0.345088
10 55.000000 110.000000 110.000000 0.114966 0.580860 0.254768 0.764511
11 55.000000 110.000000 110.000000 0.179153 0.929320 0.115660 0.301483
12 55.000000 110.000000 110.000000 0.629082 0.690351 0.350284 0.070506
13 55.000000 110.000000 110.000000 0.175648 0.268949 0.921080 0.220060
14 55.000000 110.000000 110.000000 0.642359 0.464190 0.412712 0.448967
15 55.000000 110.000000 110.000000 0.752214 0.179145 0.138764 0.618729
16 55.000000 110.000000 110.000000 0.601460 0.305733 0.676408 0.295373
17 55.000000 110.000000 110.000000 0.053766 0.774133 0.010920 0.630642
18 55.000000 110.000000 110.000000 0.733774 0.567481 0.219867 0.301993
19 55.000000 110.000000 110.000000 0.093639 0.038080 0.745613 0.658667
20 55.000000 110.000000 110.000000 0.404422 0.145296 0.270596 0.861458
21 55.000000 110.000000 110.000000 0.524394 0.478883 0.601480 0.365929
22 55.000000 110.000000 110.000000 0.229584 0.692310 0.681619 0.058258
23 55.000000 110.000000 110.000000 0.294669 0.344389 0.835301 0.311190
24 55.000000 110.000000 110.000000 0.498231 0.260108 0.173273 0.808756
25 55.000000 110.000000 110.000000 0.025578 0.494768 0.437604 0.750369




