LAMMPS data file

50 atoms
50 ellipsoids
0 bonds
0 angles
0 dihedrals

1 atom types
0 bond types
0 angle types
0 dihedral types

-500.000000 500.000000 xlo xhi
-500.000000 500.000000 ylo yhi
-500.000000 500.000000 zlo zhi

Masses

1 203166.000000

Atoms

1 1 -500.000000 -500.000000 -500.000000 1 1.000000 3 0.000000
2 1 -250.000000 -500.000000 -500.000000 1 1.000000 4 0.000000
3 1 0.000000 -500.000000 -500.000000 1 1.000000 5 0.000000
4 1 250.000000 -500.000000 -500.000000 1 1.000000 6 0.000000
5 1 -500.000000 -250.000000 -500.000000 1 1.000000 7 0.000000
6 1 -250.000000 -250.000000 -500.000000 1 1.000000 8 0.000000
7 1 0.000000 -250.000000 -500.000000 1 1.000000 9 0.000000
8 1 250.000000 -250.000000 -500.000000 1 1.000000 10 0.000000
9 1 -500.000000 0.000000 -500.000000 1 1.000000 11 0.000000
10 1 -250.000000 0.000000 -500.000000 1 1.000000 12 0.000000
11 1 0.000000 0.000000 -500.000000 1 1.000000 13 0.000000
12 1 250.000000 0.000000 -500.000000 1 1.000000 14 0.000000
13 1 -500.000000 250.000000 -500.000000 1 1.000000 15 0.000000
14 1 -250.000000 250.000000 -500.000000 1 1.000000 16 0.000000
15 1 0.000000 250.000000 -500.000000 1 1.000000 17 0.000000
16 1 250.000000 250.000000 -500.000000 1 1.000000 18 0.000000
17 1 -500.000000 -500.000000 -250.000000 1 1.000000 19 0.000000
18 1 -250.000000 -500.000000 -250.000000 1 1.000000 20 0.000000
19 1 0.000000 -500.000000 -250.000000 1 1.000000 21 0.000000
20 1 250.000000 -500.000000 -250.000000 1 1.000000 22 0.000000
21 1 -500.000000 -250.000000 -250.000000 1 1.000000 23 0.000000
22 1 -250.000000 -250.000000 -250.000000 1 1.000000 24 0.000000
23 1 0.000000 -250.000000 -250.000000 1 1.000000 25 0.000000
24 1 250.000000 -250.000000 -250.000000 1 1.000000 26 0.000000
25 1 -500.000000 0.000000 -250.000000 1 1.000000 27 0.000000
26 1 -250.000000 0.000000 -250.000000 1 1.000000 28 0.000000
27 1 0.000000 0.000000 -250.000000 1 1.000000 29 0.000000
28 1 250.000000 0.000000 -250.000000 1 1.000000 30 0.000000
29 1 -500.000000 250.000000 -250.000000 1 1.000000 31 0.000000
30 1 -250.000000 250.000000 -250.000000 1 1.000000 32 0.000000
31 1 0.000000 250.000000 -250.000000 1 1.000000 33 0.000000
32 1 250.000000 250.000000 -250.000000 1 1.000000 34 0.000000
33 1 -500.000000 -500.000000 0.000000 1 1.000000 35 0.000000
34 1 -250.000000 -500.000000 0.000000 1 1.000000 36 0.000000
35 1 0.000000 -500.000000 0.000000 1 1.000000 37 0.000000
36 1 250.000000 -500.000000 0.000000 1 1.000000 38 0.000000
37 1 -500.000000 -250.000000 0.000000 1 1.000000 39 0.000000
38 1 -250.000000 -250.000000 0.000000 1 1.000000 40 0.000000
39 1 0.000000 -250.000000 0.000000 1 1.000000 41 0.000000
40 1 250.000000 -250.000000 0.000000 1 1.000000 42 0.000000
41 1 -500.000000 0.000000 0.000000 1 1.000000 43 0.000000
42 1 -250.000000 0.000000 0.000000 1 1.000000 44 0.000000
43 1 0.000000 0.000000 0.000000 1 1.000000 45 0.000000
44 1 250.000000 0.000000 0.000000 1 1.000000 46 0.000000
45 1 -500.000000 250.000000 0.000000 1 1.000000 47 0.000000
46 1 -250.000000 250.000000 0.000000 1 1.000000 48 0.000000
47 1 0.000000 250.000000 0.000000 1 1.000000 49 0.000000
48 1 250.000000 250.000000 0.000000 1 1.000000 50 0.000000
49 1 -500.000000 -500.000000 250.000000 1 1.000000 51 0.000000
50 1 -250.000000 -500.000000 250.000000 1 1.000000 52 0.000000

Ellipsoids

1 55.000000 110.000000 110.000000 0.672687 0.019351 0.590161 0.445901
2 55.000000 110.000000 110.000000 0.199576 0.696150 0.298076 0.621849
3 55.000000 110.000000 110.000000 0.477413 0.138034 0.866486 0.047181
4 55.000000 110.000000 110.000000 0.319024 0.824464 0.331230 0.329803
5 55.000000 110.000000 110.000000 0.372381 0.201405 0.584542 0.692155
6 55.000000 110.000000 110.000000 0.198404 0.331082 0.703229 0.597067
7 55.000000 110.000000 110.000000 0.353680 0.583798 0.547616 0.483950
8 55.000000 110.000000 110.000000 0.161216 0.651079 0.666225 0.325960
9 55.000000 110.000000 110.000000 0.607083 0.358862 0.537384 0.462479
10 55.000000 110.000000 110.000000 0.525318 0.512352 0.639386 0.229612
11 55.000000 110.000000 110.000000 0.079140 0.446369 0.343593 0.822457
12 55.000000 110.000000 110.000000 0.648234 0.393103 0.182897 0.625949
13 55.000000 110.000000 110.000000 0.925541 0.095181 0.130753 0.342371
14 55.000000 110.000000 110.000000 0.716558 0.191892 0.453073 0.494417
15 55.000000 110.000000 110.000000 0.606240 0.417241 0.671222 0.088562
16 55.000000 110.000000 110.000000 0.336941 0.280045 0.385180 0.812208
17 55.000000 110.000000 110.000000 0.414987 0.524101 0.576355 0.470019
18 55.000000 110.000000 110.000000 0.319678 0.780785 0.449883 0.292893
19 55.000000 110.000000 110.000000 0.588881 0.680094 0.309225 0.308336
20 55.000000 110.000000 110.000000 0.333264 0.593970 0.694182 0.232907
21 55.000000 110.000000 110.000000 0.505243 0.081807 0.155312 0.844935
22 55.000000 110.000000 110.000000 0.062363 0.806856 0.311236 0.498224
23 55.000000 110.000000 110.000000 0.840326 0.015998 0.532315 0.101180
24 55.000000 110.000000 110.000000 0.659136 0.606754 0.424611 0.130746
25 55.000000 110.000000 110.000000 0.191877 0.288368 0.813168 0.467745
26 55.000000 110.000000 110.000000 0.434551 0.083514 0.769427 0.460623
27 55.000000 110.000000 110.000000 0.640135 0.713782 0.248245 0.138267
28 55.000000 110.000000 110.000000 0.189357 0.778964 0.514283 0.304750
29 55.000000 110.000000 110.000000 0.595582 0.600344 0.018546 0.533409
30 55.000000 110.000000 110.000000 0.178849 0.796683 0.493921 0.298917
31 55.000000 110.000000 110.000000 0.290822 0.404742 0.677385 0.541070
32 55.000000 110.000000 110.000000 0.701851 0.654286 0.002976 0.281614
33 55.000000 110.000000 110.000000 0.606647 0.005391 0.312910 0.730778
34 55.000000 110.000000 110.000000 0.347509 0.620990 0.164074 0.683146
35 55.000000 110.000000 110.000000 0.621349 0.552032 0.546726 0.101372
36 55.000000 110.000000 110.000000 0.051589 0.702594 0.706848 0.063763
37 55.000000 110.000000 110.000000 0.809578 0.084630 0.579524 0.039659
38 55.000000 110.000000 110.000000 0.651842 0.426445 0.537356 0.323257
39 55.000000 110.000000 110.000000 0.847987 0.118468 0.089693 0.508762
40 55.000000 110.000000 110.000000 0.124388 0.842450 0.514443 0.100766
41 55.000000 110.000000 110.000000 0.330772 0.035764 0.638728 0.693785
42 55.000000 110.000000 110.000000 0.369312 0.527221 0.601611 0.472981
43 55.000000 110.000000 110.000000 0.254111 0.947981 0.125111 0.145284
44 55.000000 110.000000 110.000000 0.670784 0.108508 0.688157 0.254392
45 55.000000 110.000000 110.000000 0.060318 0.549940 0.598585 0.579330
46 55.000000 110.000000 110.000000 0.323161 0.546859 0.508290 0.581510
47 55.000000 110.000000 110.000000 0.526662 0.299142 0.191237 0.772379
48 55.000000 110.000000 110.000000 0.218052 0.545516 0.792912 0.161730
49 55.000000 110.000000 110.000000 0.210389 0.512312 0.378417 0.741670
50 55.000000 110.000000 110.000000 0.395715 0.182597 0.326363 0.838782




