ITEM: TIMESTEP
0
ITEM: NUMBER OF ATOMS
50
ITEM: BOX BOUNDS pp pp pp
-5.0000000000000000e+02 5.0000000000000000e+02
-5.0000000000000000e+02 5.0000000000000000e+02
-5.0000000000000000e+02 5.0000000000000000e+02
ITEM: ATOMS id type x y z c_q[1] c_q[2] c_q[3] c_q[4] 
1 1 -500 -500 -500 0.672687 0.019351 0.590161 0.445901 
2 1 -250 -500 -500 0.199576 0.69615 0.298076 0.621849 
3 1 0 -500 -500 0.477413 0.138034 0.866486 0.047181 
4 1 250 -500 -500 0.319024 0.824464 0.33123 0.329803 
5 1 -500 -250 -500 0.372381 0.201405 0.584542 0.692155 
6 1 -250 -250 -500 0.198404 0.331082 0.703229 0.597067 
7 1 0 -250 -500 0.35368 0.583798 0.547616 0.48395 
8 1 250 -250 -500 0.161216 0.651079 0.666225 0.32596 
9 1 -500 0 -500 0.607083 0.358862 0.537384 0.462479 
10 1 -250 0 -500 0.525318 0.512352 0.639386 0.229612 
11 1 0 0 -500 0.07914 0.446369 0.343593 0.822457 
12 1 250 0 -500 0.648234 0.393103 0.182897 0.625949 
13 1 -500 250 -500 0.925541 0.095181 0.130753 0.342371 
14 1 -250 250 -500 0.716558 0.191892 0.453073 0.494417 
15 1 0 250 -500 0.60624 0.417241 0.671222 0.088562 
16 1 250 250 -500 0.336941 0.280045 0.38518 0.812208 
17 1 -500 -500 -250 0.414987 0.524101 0.576355 0.470019 
18 1 -250 -500 -250 0.319678 0.780785 0.449883 0.292893 
19 1 0 -500 -250 0.588881 0.680094 0.309225 0.308336 
20 1 250 -500 -250 0.333264 0.59397 0.694182 0.232907 
21 1 -500 -250 -250 0.505243 0.081807 0.155312 0.844935 
22 1 -250 -250 -250 0.062363 0.806856 0.311236 0.498224 
23 1 0 -250 -250 0.840326 0.015998 0.532315 0.10118 
24 1 250 -250 -250 0.659136 0.606754 0.424611 0.130746 
25 1 -500 0 -250 0.191877 0.288368 0.813168 0.467745 
26 1 -250 0 -250 0.434551 0.083514 0.769427 0.460623 
27 1 0 0 -250 0.640135 0.713782 0.248245 0.138267 
28 1 250 0 -250 0.189357 0.778964 0.514283 0.30475 
29 1 -500 250 -250 0.595582 0.600344 0.018546 0.533409 
30 1 -250 250 -250 0.178849 0.796683 0.493921 0.298917 
31 1 0 250 -250 0.290822 0.404742 0.677385 0.54107 
32 1 250 250 -250 0.701851 0.654286 0.002976 0.281614 
33 1 -500 -500 0 0.606647 0.005391 0.31291 0.730778 
34 1 -250 -500 0 0.347509 0.62099 0.164074 0.683146 
35 1 0 -500 0 0.621349 0.552032 0.546726 0.101372 
36 1 250 -500 0 0.051589 0.702594 0.706848 0.063763 
37 1 -500 -250 0 0.809578 0.08463 0.579524 0.039659 
38 1 -250 -250 0 0.651842 0.426445 0.537356 0.323257 
39 1 0 -250 0 0.847987 0.118468 0.089693 0.508762 
40 1 250 -250 0 0.124388 0.84245 0.514443 0.100766 
41 1 -500 0 0 0.330772 0.035764 0.638728 0.693785 
42 1 -250 0 0 0.369312 0.527221 0.601611 0.472981 
43 1 0 0 0 0.254111 0.947981 0.125111 0.145284 
44 1 250 0 0 0.670784 0.108508 0.688157 0.254392 
45 1 -500 250 0 0.060318 0.54994 0.598585 0.57933 
46 1 -250 250 0 0.323161 0.546859 0.50829 0.58151 
47 1 0 250 0 0.526662 0.299142 0.191237 0.772379 
48 1 250 250 0 0.218052 0.545516 0.792912 0.16173 
49 1 -500 -500 250 0.210389 0.512312 0.378417 0.74167 
50 1 -250 -500 250 0.395715 0.182597 0.326363 0.838782 
ITEM: TIMESTEP
10000
ITEM: NUMBER OF ATOMS
50
ITEM: BOX BOUNDS pp pp pp
-5.0000000000000000e+02 5.0000000000000000e+02
-5.0000000000000000e+02 5.0000000000000000e+02
-5.0000000000000000e+02 5.0000000000000000e+02
ITEM: ATOMS id type x y z c_q[1] c_q[2] c_q[3] c_q[4] 
7 1 -1.32198 -253.109 -499.621 0.383617 0.621294 0.522741 0.43997 
8 1 251.62 -246.71 -498.017 0.197211 0.665419 0.658131 0.291873 
5 1 495.875 -253.833 -497.784 0.417469 0.184778 0.618472 0.639585 
10 1 -250.689 -2.76576 -496.891 0.564509 0.497394 0.621058 0.21958 
9 1 498.054 6.06355 -495.824 0.594441 0.356487 0.54387 0.473035 
13 1 -495.078 250.07 -492.91 0.93635 0.112601 0.138077 0.302498 
14 1 -249.967 255.176 -498.315 0.711523 0.114158 0.458161 0.520376 
16 1 253.157 249.922 -495.658 0.315323 0.246973 0.389695 0.829285 
2 1 -251.714 497.852 -498.226 0.203387 0.701149 0.274326 0.625915 
3 1 -1.77394 498.763 -498.099 0.495507 0.188054 0.842623 0.0953718 
1 1 499.262 496.182 -495.247 0.660202 -0.00221766 0.613998 0.432591 
18 1 -255.152 -499.306 -248.505 0.291551 0.801166 0.449159 0.267185 
20 1 250.897 -498.385 -246.842 0.325491 0.634136 0.656015 0.248137 
21 1 -497.566 -246.425 -250.046 0.500266 0.0597866 0.151429 0.850429 
22 1 -242.272 -249.021 -245.799 0.0537496 0.829694 0.278427 0.480829 
23 1 0.603819 -255.323 -250.82 0.819361 0.0191913 0.562799 0.107408 
24 1 245.019 -245.96 -249.986 0.684113 0.595 0.39632 0.144553 
28 1 247.897 -0.413719 -245.265 0.156027 0.781839 0.550349 0.247989 
26 1 -245.608 2.98002 -249.839 0.465666 0.117202 0.767302 0.425049 
27 1 -2.66777 1.74875 -244.347 0.637431 0.72151 0.223427 0.152266 
25 1 497.616 1.5441 -243.579 0.110594 0.291474 0.82814 0.465828 
29 1 -498.989 252.98 -250.825 0.59788 0.603827 0.0734766 0.522048 
30 1 -250.049 244.733 -255.689 0.143037 0.787714 0.533744 0.27233 
31 1 6.77107 251.191 -246.795 0.306577 0.348822 0.680613 0.566656 
32 1 252.718 251.954 -252.099 0.714703 0.648522 -0.063116 0.254234 
17 1 -497.343 495.107 -247.431 0.420738 0.466488 0.595552 0.500686 
19 1 -5.05807 498.952 -247.715 0.567348 0.675946 0.307449 0.355933 
33 1 -498.659 -499.932 -2.08497 0.661125 -0.0291827 0.252001 0.706086 
34 1 -247.072 499.761 -1.7096 0.332961 0.602755 0.164801 0.706161 
38 1 -248.188 -253.785 -4.85161 0.697442 0.436238 0.501278 0.268313 
40 1 255.716 -251.603 0.450398 0.121796 0.846683 0.504084 0.119135 
41 1 -494.21 7.35429 -3.88037 0.26962 0.0286253 0.678825 0.682409 
46 1 -247.648 249.439 -0.365184 0.310315 0.531852 0.505221 0.60464 
35 1 -0.257247 490.419 -2.30797 0.606386 0.53718 0.567718 0.146391 
36 1 245.59 497.885 -0.518784 0.0295507 0.679999 0.728734 0.075331 
37 1 -499.391 -251.092 1.12421 0.801884 0.114689 0.584722 0.0439275 
39 1 6.63398 -251.569 1.77189 0.873262 0.142148 0.0951062 0.456249 
42 1 -253.749 6.28306 7.63038 0.410056 0.496298 0.578297 0.501114 
43 1 -0.23234 7.4184 -1.06211 0.251754 0.942463 0.0988562 0.196495 
44 1 250.929 6.64854 3.83174 0.645809 0.0716483 0.712763 0.264131 
47 1 0.844765 247.551 3.23193 0.459382 0.28468 0.195368 0.818387 
48 1 252.74 251.371 1.74552 0.175395 0.559496 0.799125 0.132667 
45 1 496.846 244.868 1.82392 0.0123481 0.57061 0.598709 0.56196 
49 1 -495.349 -496.117 255.125 0.221797 0.507966 0.346611 0.756728 
50 1 -248.241 -499.962 247.872 0.419531 0.181295 0.352852 0.816469 
6 1 -255.213 -253.856 -497.815 0.18465 0.376987 0.711307 0.563762 
11 1 0.0330104 -3.06115 497.756 0.0809231 0.44472 0.321158 0.832186 
12 1 254.936 4.75115 497.886 0.616285 0.433021 0.207094 0.624338 
15 1 -0.572944 253.849 499.754 0.571467 0.407605 0.702553 0.117061 
4 1 253.217 499.495 -499.497 0.294213 0.829731 0.331393 0.339358 
ITEM: TIMESTEP
20000
ITEM: NUMBER OF ATOMS
50
ITEM: BOX BOUNDS pp pp pp
-5.0000000000000000e+02 5.0000000000000000e+02
-5.0000000000000000e+02 5.0000000000000000e+02
-5.0000000000000000e+02 5.0000000000000000e+02
ITEM: ATOMS id type x y z c_q[1] c_q[2] c_q[3] c_q[4] 
3 1 -3.62478 -496.27 -498.458 0.517101 0.176106 0.828735 0.121619 
6 1 -256.239 -257.19 -495.732 0.163508 0.360134 0.715635 0.575704 
7 1 -1.70149 -255.133 -499.858 0.389375 0.589151 0.535458 0.46322 
5 1 491.377 -253.788 -496.192 0.376999 0.189491 0.659114 0.622521 
10 1 -255.508 -5.81767 -495.332 0.56125 0.48064 0.636858 0.21999 
13 1 -499.01 249.25 -492.76 0.938778 0.103138 0.134326 0.300024 
16 1 252.924 247.894 -493.606 0.371197 0.216985 0.349823 0.832318 
1 1 -499.835 499.692 -491.864 0.673184 0.0282447 0.626592 0.391674 
2 1 -251.114 495.829 -494.942 0.254271 0.681597 0.246865 0.640179 
4 1 254.871 498.321 499.829 0.292854 0.838925 0.34209 0.305642 
18 1 -252.24 -498.794 -248.505 0.284476 0.802985 0.435766 0.290513 
20 1 249.25 -497.584 -248.866 0.329995 0.655616 0.648811 0.200787 
21 1 -498.034 -247.289 -257.074 0.472929 0.0955541 0.15194 0.862625 
22 1 -241.936 -253.092 -246.336 0.0640186 0.79913 0.257301 0.539526 
23 1 1.45393 -259.161 -253.249 0.806478 0.0583848 0.580059 0.0985701 
24 1 245.278 -250.834 -256.871 0.707565 0.558996 0.367128 0.228237 
28 1 247.216 -3.54705 -242.316 0.157463 0.808436 0.523265 0.2187 
26 1 -246.01 2.05668 -255.684 0.478549 0.106237 0.777202 0.394539 
27 1 -3.89234 3.6635 -243.051 0.639761 0.720725 0.248295 0.0980355 
25 1 497.927 1.84375 -245.551 0.137925 0.348721 0.80885 0.452915 
29 1 -495.369 253.496 -249.57 0.630808 0.552479 0.0638701 0.541081 
30 1 -248.924 244.817 -253.247 0.167787 0.771832 0.54575 0.279784 
31 1 6.05278 247.654 -245.744 0.303909 0.350002 0.686754 0.559916 
32 1 253.938 252.694 -252.663 0.72462 0.64553 -0.022968 0.240185 
19 1 -1.17075 494.726 -249.691 0.595537 0.66119 0.303835 0.340363 
17 1 497.264 490.265 -249.185 0.409029 0.487262 0.600926 0.4839 
36 1 247.945 -499.456 0.0498107 0.00495543 0.710058 0.701073 0.0654965 
37 1 -489.204 -251.792 -2.17629 0.784276 0.157359 0.600125 -0.000179984 
38 1 -243.104 -255.669 -4.25698 0.68546 0.460361 0.498358 0.264295 
40 1 256.81 -248.632 -2.90227 0.163 0.835832 0.471993 0.228117 
41 1 -494.382 10.9463 -2.30979 0.277433 0.0249656 0.676806 0.681426 
33 1 -498.659 499.149 -6.51413 0.62052 -0.0343942 0.250962 0.742152 
39 1 5.07219 -254.076 9.31765 0.819183 0.181856 0.0796257 0.538078 
42 1 -251.305 4.8959 11.3347 0.399469 0.499031 0.587516 0.496202 
43 1 1.33356 6.08089 -0.284957 0.257463 0.93104 0.147348 0.21252 
44 1 253.042 6.05343 5.82336 0.621833 0.0639344 0.739908 0.248542 
46 1 -245.646 247.739 2.31481 0.320805 0.54898 0.481719 0.603036 
47 1 1.30707 251.99 4.35285 0.419967 0.233688 0.233237 0.845351 
48 1 251.264 253.67 3.32513 0.223504 0.52889 0.809819 0.120478 
45 1 495.85 242.496 2.95219 0.00936361 0.570463 0.605666 0.554664 
34 1 -248.986 498.751 2.41586 0.315434 0.600552 0.163028 0.716422 
35 1 -2.20974 491.723 2.13047 0.599885 0.50411 0.59558 0.176905 
49 1 -494.396 -492.244 258.111 0.235691 0.542757 0.326982 0.736849 
50 1 -247.837 -499.22 247.374 0.415341 0.165193 0.356304 0.820519 
8 1 243.878 -250.137 499.448 0.192367 0.676876 0.640673 0.3072 
11 1 1.51089 -6.74675 497.04 0.157431 0.415163 0.332156 0.832182 
9 1 -492.224 4.89928 499.606 0.617883 0.364261 0.510365 0.474407 
12 1 259.359 7.32145 496.537 0.6054 0.411548 0.176693 0.65795 
14 1 -247.041 252.827 498.11 0.708522 0.0889344 0.438957 0.545348 
15 1 0.35944 256.004 497.497 0.570138 0.400291 0.708587 0.112312 
ITEM: TIMESTEP
30000
ITEM: NUMBER OF ATOMS
50
ITEM: BOX BOUNDS pp pp pp
-5.0000000000000000e+02 5.0000000000000000e+02
-5.0000000000000000e+02 5.0000000000000000e+02
-5.0000000000000000e+02 5.0000000000000000e+02
ITEM: ATOMS id type x y z c_q[1] c_q[2] c_q[3] c_q[4] 
6 1 -266.225 -257.364 -494.606 0.174843 0.303526 0.74619 0.566129 
8 1 239.029 -249.678 -498.09 0.18946 0.67153 0.663817 0.269258 
5 1 493.871 -247.767 -498.697 0.339234 0.181624 0.650116 0.655197 
10 1 -259.575 -8.03809 -499.259 0.584864 0.46069 0.638045 0.196461 
13 1 -499.688 247.585 -498.413 0.944214 0.0862963 0.106526 0.299441 
16 1 252.114 244.41 -491.467 0.372684 0.201777 0.355204 0.8332 
2 1 -252.633 -499.664 -496.72 0.254155 0.706762 0.241791 0.614353 
1 1 497.04 494.727 -490.604 0.675394 0.0130008 0.637398 0.370672 
18 1 -251.641 -499.966 -251.356 0.334568 0.773757 0.437136 0.31349 
20 1 250.594 -495.607 -251.804 0.376064 0.610289 0.661097 0.221526 
21 1 -495.503 -246.13 -259.35 0.463006 0.108124 0.136502 0.869081 
22 1 -245.186 -248.966 -243.243 0.105722 0.830147 0.257641 0.483011 
23 1 -0.269393 -259.54 -255.517 0.804987 0.0223622 0.582999 0.107741 
24 1 246.122 -255.339 -260.675 0.713171 0.532271 0.35827 0.282344 
25 1 -494.312 -1.46621 -242.492 0.0928151 0.302023 0.844186 0.433033 
26 1 -246.115 -1.11477 -258.892 0.490654 0.102337 0.772833 0.389249 
28 1 242.817 -2.5052 -243.703 0.131516 0.828139 0.516473 0.173626 
27 1 -2.75016 2.82896 -241.01 0.661709 0.69436 0.253459 0.125552 
29 1 -492.025 252.552 -246.832 0.613872 0.593901 0.0917926 0.511875 
30 1 -248.099 247.933 -259.781 0.221657 0.776791 0.540046 0.236252 
31 1 11.5038 249.476 -249.149 0.296761 0.323935 0.69288 0.571767 
32 1 252.865 254.38 -250.359 0.707988 0.65741 -0.0475205 0.253587 
19 1 -0.980213 494.805 -244.32 0.599771 0.687203 0.27658 0.30254 
17 1 497.57 487.977 -249.448 0.370909 0.459266 0.613624 0.524373 
33 1 -491.755 -499.117 -7.8802 0.647844 -0.00515184 0.252027 0.718856 
37 1 -489.404 -253.317 -2.08066 0.770932 0.167114 0.614572 -0.00607921 
38 1 -244.555 -259.101 -5.13293 0.693273 0.461238 0.49184 0.254413 
40 1 260.526 -244.332 -2.57552 0.126076 0.816592 0.483426 0.289107 
43 1 6.9714 -2.53533 -0.641945 0.286081 0.911814 0.183955 0.230028 
41 1 -499.895 10.6027 -3.67583 0.254994 0.0176427 0.668093 0.698798 
46 1 -247.379 251.914 0.0591642 0.282959 0.554213 0.46391 0.630531 
47 1 -0.610045 251.9 -1.69393 0.391258 0.253111 0.218885 0.857287 
34 1 -252.662 495.743 -0.153006 0.327392 0.615199 0.116848 0.707596 
36 1 244.984 498.957 -2.23848 -0.0127753 0.713964 0.694585 0.0874298 
39 1 10.5821 -258.903 10.2154 0.804233 0.153792 0.0770351 0.568878 
42 1 -252.174 11.3409 11.4975 0.390004 0.468211 0.615426 0.499926 
44 1 254.833 8.51777 5.36292 0.625136 0.0925005 0.735085 0.245557 
48 1 251.107 249.959 8.7868 0.221883 0.476627 0.839793 0.135437 
45 1 489.927 240.479 4.53177 0.00362656 0.557667 0.642541 0.525486 
35 1 -1.73456 494.505 0.635008 0.609118 0.540522 0.553005 0.176061 
49 1 -494.462 -492.847 250.273 0.228922 0.554557 0.327834 0.729785 
50 1 -247.579 494.251 243.445 0.459086 0.190286 0.341732 0.797653 
3 1 -3.38545 -497.106 499.478 0.487546 0.188538 0.841479 0.136622 
7 1 -5.64408 -252.537 498.93 0.389127 0.574068 0.584391 0.421324 
11 1 -1.64021 -4.87374 495.225 0.198151 0.434283 0.300315 0.8258 
9 1 -493.533 1.98471 498.469 0.652403 0.322768 0.471974 0.497425 
12 1 261.641 8.22376 496.801 0.601951 0.40923 0.146454 0.669878 
14 1 -250.825 255.627 495.156 0.713986 0.0743798 0.441347 0.538428 
15 1 -0.372301 258.187 498.392 0.569084 0.380152 0.725149 0.0760695 
4 1 255.564 494.504 499.775 0.248404 0.854655 0.350128 0.292013 
ITEM: TIMESTEP
40000
ITEM: NUMBER OF ATOMS
50
ITEM: BOX BOUNDS pp pp pp
-5.0000000000000000e+02 5.0000000000000000e+02
-5.0000000000000000e+02 5.0000000000000000e+02
-5.0000000000000000e+02 5.0000000000000000e+02
ITEM: ATOMS id type x y z c_q[1] c_q[2] c_q[3] c_q[4] 
6 1 -269.769 -260.55 -494.094 0.202825 0.330537 0.775552 0.498122 
5 1 494.761 -249.074 -495.352 0.284627 0.243641 0.687068 0.622546 
10 1 -260.34 -7.5956 -498.818 0.612563 0.455709 0.608157 0.217349 
15 1 -1.25198 257.221 -497.268 0.581158 0.37025 0.716135 0.110997 
16 1 255.107 242.942 -492.496 0.384339 0.167102 0.37132 0.828542 
13 1 499.656 251.413 -499.481 0.924201 0.160459 0.13232 0.320308 
2 1 -255.806 -499.84 -499.043 0.286402 0.70162 0.215705 0.615771 
1 1 491.377 493.12 -490.115 0.63902 -0.0012757 0.631367 0.43935 
19 1 -2.19408 -498.818 -244.101 0.583707 0.688184 0.275892 0.331017 
20 1 249.742 -491.491 -249.037 0.384631 0.636092 0.618805 0.254019 
21 1 -494.615 -249.819 -260.594 0.465283 0.120572 0.118214 0.868907 
22 1 -245.627 -246.264 -238.906 0.10752 0.834503 0.23893 0.484723 
23 1 0.435722 -258.437 -256.783 0.791924 0.0169975 0.595844 0.132425 
24 1 248.918 -252.459 -264.926 0.709044 0.537879 0.365874 0.272176 
25 1 -492.297 -3.83414 -241.87 0.0909537 0.352827 0.803556 0.470679 
26 1 -244.253 -1.5476 -253.131 0.496633 0.089858 0.770794 0.388791 
27 1 -4.87949 4.2121 -237.69 0.640353 0.703313 0.260082 0.166302 
28 1 245.598 2.03024 -244.242 0.143078 0.809164 0.53998 0.182217 
29 1 -489.879 251.64 -253.343 0.569659 0.600249 0.1013 0.552203 
30 1 -253.498 242.342 -261.321 0.230327 0.788535 0.516436 0.241776 
31 1 10.2055 245.575 -253.657 0.27804 0.311973 0.70356 0.574779 
32 1 249.37 252.226 -252.787 0.67125 0.698101 -0.0525163 0.243557 
18 1 -251.433 495.237 -252.156 0.384163 0.738485 0.443313 0.332465 
17 1 495.383 494.067 -251.569 0.403693 0.452994 0.623646 0.492843 
37 1 -487.319 -257.933 -3.2997 0.808179 0.148627 0.566958 -0.057582 
38 1 -247.564 -256.432 0.674912 0.707015 0.46633 0.459412 0.267595 
40 1 258.526 -244.826 -3.19517 0.0965472 0.841288 0.474628 0.240087 
41 1 497.972 13.8313 -7.06838 0.270138 0.058025 0.68118 0.677976 
47 1 4.68882 247.343 -3.02425 0.387692 0.272999 0.2517 0.843691 
33 1 -498.654 497.687 -5.37062 0.644167 0.0241227 0.232333 0.728346 
36 1 243.353 495.422 -4.00464 0.0382777 0.709964 0.699748 0.0695532 
39 1 11.0854 -255.956 6.40551 0.758323 0.15216 0.0638567 0.630648 
43 1 12.1542 -5.99623 1.52982 0.277499 0.915497 0.224208 0.185985 
42 1 -257.772 8.71789 9.75233 0.385139 0.487601 0.60645 0.496117 
44 1 255.619 9.54982 3.18077 0.606929 0.0821493 0.741196 0.274804 
46 1 -244.639 254.488 -1.03855 0.280769 0.518929 0.439797 0.677097 
48 1 249.387 245.139 10.2404 0.218685 0.482552 0.840205 0.115656 
45 1 485.289 243.068 6.2003 -0.0107477 0.58064 0.645355 0.496245 
34 1 -249.72 495.042 1.4366 0.316171 0.587883 0.158632 0.727506 
35 1 -3.12612 492.232 1.57753 0.594976 0.539483 0.570151 0.172885 
49 1 -495.086 -493.907 245.253 0.228041 0.568165 0.332419 0.717415 
50 1 -248.438 495.3 241.224 0.505904 0.213466 0.358007 0.755198 
3 1 0.8299 -499.042 495.156 0.469 0.149998 0.854647 0.164674 
7 1 0.061368 -257.863 495.03 0.385005 0.53804 0.618669 0.423712 
8 1 237.16 -248.773 -498.874 0.182485 0.674772 0.663633 0.266408 
11 1 1.58924 -4.92291 497.174 0.201169 0.451406 0.297342 0.816916 
9 1 -495.381 -0.311804 492.553 0.629411 0.322646 0.490201 0.509356 
12 1 260.807 8.56163 496.385 0.587114 0.441941 0.146178 0.662282 
14 1 -246.549 257.525 494.025 0.716501 0.0748535 0.453445 0.524796 
4 1 257.045 499.708 496.17 0.2156 0.85959 0.378529 0.267091 
ITEM: TIMESTEP
50000
ITEM: NUMBER OF ATOMS
50
ITEM: BOX BOUNDS pp pp pp
-5.0000000000000000e+02 5.0000000000000000e+02
-5.0000000000000000e+02 5.0000000000000000e+02
-5.0000000000000000e+02 5.0000000000000000e+02
ITEM: ATOMS id type x y z c_q[1] c_q[2] c_q[3] c_q[4] 
6 1 -268.794 -265.671 -489.638 0.208072 0.311348 0.764827 0.524222 
7 1 3.39045 -255.34 -497.73 0.356708 0.505088 0.668139 0.413806 
8 1 233.494 -243.533 -499.974 0.160358 0.620473 0.711175 0.289012 
5 1 486.98 -250.404 -490.071 0.289271 0.27469 0.663212 0.63326 
10 1 -254.129 -12.4469 -497.296 0.605895 0.455718 0.614239 0.218914 
13 1 -499.413 245.441 -492.349 0.907325 0.191559 0.151941 0.342025 
15 1 0.318552 254.56 -498.594 0.516748 0.399226 0.752833 0.0826631 
16 1 259.297 243.134 -496.414 0.409988 0.183418 0.400201 0.798816 
1 1 491.624 491.648 -490.839 0.658453 0.0297109 0.648364 0.381027 
19 1 1.82225 -500.044 -240.604 0.594668 0.682118 0.293312 0.308306 
20 1 255.642 -493.455 -254.391 0.418081 0.64651 0.590956 0.24084 
21 1 -498.191 -250.229 -262.863 0.447257 0.165984 0.129213 0.869318 
22 1 -239.133 -250.299 -233.41 0.0774017 0.853423 0.256587 0.447036 
23 1 -2.40789 -252.275 -256.322 0.781917 0.0441783 0.596228 0.176541 
24 1 250.703 -247.164 -264.628 0.728089 0.535522 0.307968 0.297083 
25 1 -492.275 -3.66427 -241.662 0.0802787 0.388033 0.797479 0.454987 
26 1 -247.428 -4.57715 -253.443 0.514858 0.0697279 0.766958 0.37661 
27 1 -2.21235 6.73198 -235.382 0.634968 0.714536 0.250916 0.15263 
28 1 244.274 2.65124 -247.437 0.125428 0.801003 0.557915 0.177181 
29 1 -493.303 247.044 -255.225 0.546207 0.567718 0.126456 0.602796 
30 1 -254.283 248.131 -261.962 0.225167 0.789224 0.514388 0.248656 
31 1 6.64075 248.329 -250.07 0.237791 0.297117 0.744962 0.547912 
32 1 247.124 251.988 -247.988 0.658906 0.706227 0.0132052 0.258673 
18 1 -256.336 494.974 -254.712 0.39959 0.749734 0.423606 0.314302 
17 1 494.529 492.759 -249.283 0.404914 0.491343 0.609837 0.471939 
36 1 242.615 -498.846 -8.48636 0.0385705 0.74795 0.660348 0.0549904 
37 1 -488.394 -263.069 -0.433827 0.816871 0.158692 0.548956 -0.078652 
40 1 257.874 -246.408 -0.43007 0.11623 0.868654 0.42539 0.225774 
41 1 497.888 17.2664 -9.11467 0.292462 0.0440907 0.673883 0.677055 
46 1 -246.742 255.232 -4.31934 0.239398 0.58409 0.4261 0.648048 
47 1 8.64207 247.956 -5.03887 0.43427 0.256179 0.254418 0.82526 
33 1 -493.203 497.83 -5.72833 0.644467 0.0411312 0.233301 0.727008 
34 1 -250.656 494.714 -0.640702 0.258675 0.598343 0.228175 0.723193 
38 1 -245.332 -260.716 1.68423 0.707059 0.495817 0.435656 0.253846 
39 1 12.9207 -255.222 3.52901 0.755597 0.145516 0.0767783 0.634037 
43 1 12.8201 -3.9769 3.48746 0.259787 0.918003 0.198113 0.224795 
42 1 -253.501 3.98629 9.29326 0.404576 0.453166 0.622518 0.493387 
44 1 254.449 11.1639 4.46215 0.590928 0.07881 0.746821 0.294706 
48 1 251.691 239.318 9.54195 0.209526 0.526221 0.815774 0.117057 
45 1 483.434 239.309 9.3686 -0.0550812 0.57381 0.642642 0.504697 
35 1 -13.703 489.959 1.79013 0.575172 0.531543 0.582494 0.217578 
49 1 -493.299 -490.99 238.977 0.193504 0.565493 0.335417 0.728196 
50 1 -244.128 494.249 239.302 0.50014 0.205755 0.345063 0.767109 
2 1 -255.212 -497.972 498.39 0.316615 0.668114 0.247637 0.626142 
3 1 -2.24552 -496.629 489.514 0.477123 0.191046 0.847617 0.131911 
11 1 3.03261 -1.08666 498.667 0.197845 0.393137 0.334854 0.83317 
9 1 -496.417 -0.0466524 494.732 0.613095 0.366975 0.463244 0.52426 
12 1 265.006 12.1199 496.047 0.529225 0.463415 0.163011 0.691806 
14 1 -246.755 256.792 498.065 0.697951 0.111932 0.501353 0.498979 
4 1 259.621 497.36 496.779 0.196485 0.867061 0.364942 0.276435 
ITEM: TIMESTEP
60000
ITEM: NUMBER OF ATOMS
50
ITEM: BOX BOUNDS pp pp pp
-5.0000000000000000e+02 5.0000000000000000e+02
-5.0000000000000000e+02 5.0000000000000000e+02
-5.0000000000000000e+02 5.0000000000000000e+02
ITEM: ATOMS id type x y z c_q[1] c_q[2] c_q[3] c_q[4] 
6 1 -271.355 -265.877 -491.062 0.214199 0.268617 0.782986 0.518552 
7 1 3.44235 -255.822 -499.206 0.378537 0.536187 0.636652 0.40483 
5 1 487.654 -246.614 -487.203 0.335486 0.279225 0.656406 0.615315 
10 1 -253.121 -12.7844 -498.939 0.61208 0.448786 0.596681 0.260616 
12 1 262.649 15.2914 -500.369 0.504721 0.473753 0.209012 0.690745 
15 1 -5.41914 251.4 -496.043 0.508954 0.386656 0.766501 0.062758 
16 1 260.579 244.4 -495.33 0.458826 0.205581 0.375619 0.778541 
13 1 496.416 255.231 -496.291 0.910208 0.174811 0.113222 0.357971 
2 1 -251.597 498.761 -499.061 0.308585 0.729957 0.210894 0.572243 
1 1 497.064 490.464 -491.494 0.652973 0.010616 0.661206 0.369215 
20 1 257.319 -498.391 -254.199 0.394239 0.606649 0.645623 0.244383 
21 1 -496.041 -248.905 -260.628 0.475514 0.142957 0.0998317 0.862255 
22 1 -235.426 -244.397 -225.802 0.0385505 0.821186 0.265913 0.503446 
23 1 -4.79721 -247.068 -254.153 0.745543 0.0314932 0.621597 0.238306 
24 1 249.752 -251.021 -267.716 0.705671 0.536281 0.31813 0.33649 
25 1 -492.189 -4.71817 -242.923 0.0832239 0.426568 0.765978 0.473699 
26 1 -245.223 -1.12152 -254.32 0.477254 0.0698071 0.77141 0.415068 
27 1 -1.8415 7.90327 -234.99 0.668871 0.683032 0.26316 0.129717 
28 1 243.297 1.11095 -246.91 0.150404 0.805596 0.536161 0.202301 
29 1 -492.224 247.481 -252.978 0.571708 0.559392 0.138838 0.583913 
30 1 -248.393 252.955 -268.243 0.229394 0.80931 0.485195 0.238709 
31 1 6.7685 251.239 -247.568 0.266551 0.33102 0.734415 0.52916 
32 1 246.773 258.906 -243.913 0.687924 0.697059 -0.025225 0.200582 
18 1 -256.135 487.627 -256.895 0.447257 0.737959 0.403519 0.304222 
19 1 -1.10222 498.649 -237.843 0.591008 0.657708 0.319389 0.340764 
17 1 492.537 492.562 -249.365 0.398572 0.505239 0.613629 0.45753 
36 1 245.819 -499.555 -8.61545 0.0447675 0.757397 0.650925 0.0253529 
39 1 11.559 -249.168 -4.45007 0.739364 0.1383 0.0532109 0.656797 
41 1 493.528 20.1647 -3.99432 0.282367 0.0627041 0.686909 0.666703 
46 1 -250.375 256.03 -7.5335 0.275272 0.61042 0.400861 0.625239 
47 1 9.38419 247.425 -2.86026 0.421841 0.253898 0.245372 0.835092 
33 1 -490.176 495.577 -1.93816 0.638826 -0.0235095 0.254201 0.725762 
34 1 -250.426 492.661 -8.76939 0.222095 0.621688 0.212445 0.720448 
35 1 -16.8101 492.871 -1.39198 0.55485 0.490471 0.628572 0.237648 
37 1 -486.783 -258.204 3.96115 0.805964 0.193931 0.550721 -0.0975717 
38 1 -242.594 -258.977 4.58382 0.706007 0.456901 0.476728 0.255981 
40 1 264.218 -247.638 1.21384 0.130885 0.874949 0.443851 0.142578 
43 1 15.0274 -3.27115 6.20721 0.230516 0.898177 0.268283 0.261085 
42 1 -257.391 7.06856 3.00241 0.400245 0.448408 0.643306 0.474228 
44 1 255.813 5.5838 4.92087 0.591002 -0.0044483 0.746641 0.305327 
48 1 253.786 239.843 3.98673 0.177679 0.496783 0.843425 0.101349 
45 1 483.744 245.922 8.91566 -0.0111191 0.594356 0.621971 0.509676 
49 1 -496.791 -491.166 243.271 0.207353 0.557022 0.32053 0.737558 
50 1 -239.985 496.335 234.096 0.534545 0.221157 0.294541 0.760656 
3 1 -1.80481 -496.276 491.595 0.45881 0.233051 0.848918 0.120497 
8 1 233.591 -245.675 497.881 0.139599 0.660372 0.69363 0.251593 
11 1 1.29215 -0.875908 497.421 0.209705 0.391852 0.310263 0.840365 
9 1 -497.637 2.9698 490.849 0.63519 0.365662 0.444952 0.514629 
14 1 -245.315 258.809 497.429 0.739628 0.121283 0.461122 0.474981 
4 1 254.36 497.483 489.747 0.188957 0.853662 0.37326 0.310213 
ITEM: TIMESTEP
70000
ITEM: NUMBER OF ATOMS
50
ITEM: BOX BOUNDS pp pp pp
-5.0000000000000000e+02 5.0000000000000000e+02
-5.0000000000000000e+02 5.0000000000000000e+02
-5.0000000000000000e+02 5.0000000000000000e+02
ITEM: ATOMS id type x y z c_q[1] c_q[2] c_q[3] c_q[4] 
6 1 -270.679 -261.821 -491.007 0.191534 0.271101 0.760389 0.558236 
7 1 6.97948 -252.366 498.738 0.398337 0.532138 0.623458 0.411651 
5 1 488.928 -243.022 -487.337 0.339153 0.276229 0.661774 0.608874 
10 1 -254.483 -9.37863 -491.569 0.600979 0.422736 0.614997 0.286176 
12 1 264.314 9.27947 -497.708 0.502221 0.504608 0.16231 0.683227 
15 1 -10.7214 247.597 -497.269 0.49194 0.419421 0.759859 0.06852 
16 1 261.447 248.895 -494.236 0.451241 0.21443 0.393928 0.771506 
13 1 499.676 256.828 -499.163 0.887648 0.177779 0.109812 0.410387 
2 1 -248.855 499.03 -498.227 0.260076 0.774563 0.188597 0.544833 
1 1 489.135 487.117 -489.443 0.653953 0.00339458 0.642389 0.399588 
19 1 -7.00338 -496.201 -233.411 0.59329 0.656254 0.341203 0.317676 
20 1 257.875 -493.235 -258.642 0.379621 0.617108 0.644698 0.243783 
21 1 -494.849 -246.884 -261.015 0.457581 0.170119 0.0790302 0.869157 
22 1 -235.145 -245.69 -224.178 0.072486 0.830841 0.264277 0.484361 
23 1 1.46101 -244.747 -251.312 0.742685 0.0325984 0.618506 0.254572 
24 1 253.295 -243.538 -265.11 0.68197 0.518937 0.323625 0.401109 
25 1 -491.064 -6.86828 -243.981 0.121919 0.414879 0.77181 0.466176 
26 1 -241.915 -3.98978 -258.107 0.455547 0.0755973 0.797241 0.388805 
28 1 246.972 -1.83411 -245.48 0.196121 0.775884 0.573398 0.175369 
27 1 1.87074 10.8264 -232.209 0.668846 0.706022 0.205254 0.109768 
29 1 -489.608 246.273 -248.689 0.546766 0.5501 0.112761 0.621066 
30 1 -247.558 249.144 -269.944 0.25397 0.779239 0.501582 0.276952 
31 1 6.64202 250.888 -248.027 0.321126 0.306308 0.711718 0.544529 
32 1 253.082 251.214 -242.643 0.682641 0.696108 0.00468206 0.222291 
18 1 -255.42 481.973 -259.184 0.459673 0.753504 0.380865 0.275452 
17 1 484.045 485.258 -248.378 0.39698 0.480944 0.615167 0.482358 
36 1 249.33 -494.256 -8.40424 0.0626944 0.78133 0.616365 0.0754135 
37 1 -480.556 -259.737 -2.15363 0.79134 0.143824 0.589433 -0.0752637 
39 1 7.86059 -247.128 -1.55778 0.739784 0.154225 0.0449388 0.653387 
41 1 498.891 26.0618 -2.62985 0.235856 0.0706594 0.66866 0.701622 
46 1 -248.973 260.523 -11.1957 0.292561 0.594864 0.362568 0.65505 
47 1 8.78635 247.375 -1.34566 0.426824 0.244078 0.234065 0.838726 
34 1 -252.248 489.036 -13.2323 0.273135 0.643514 0.150276 0.699074 
35 1 -16.8716 492.095 -2.6029 0.537234 0.483663 0.65466 0.221066 
38 1 -243.742 -256.186 2.93237 0.707604 0.470175 0.455066 0.266736 
40 1 268.807 -251.406 3.39329 0.123482 0.863189 0.462162 0.161438 
43 1 13.2231 -6.98818 5.52756 0.267287 0.885058 0.295293 0.240899 
42 1 -256.149 7.89815 6.22737 0.451503 0.44447 0.5859 0.505284 
44 1 259.13 5.59228 3.31181 0.577481 -0.00879111 0.74916 0.324341 
48 1 251.858 237.68 8.86209 0.193242 0.519781 0.819058 0.14707 
45 1 486.519 249.433 5.20488 -0.0209772 0.605414 0.61225 0.508118 
33 1 -487.993 492.214 0.450889 0.681887 -0.0702816 0.207185 0.697972 
49 1 -495.45 -492.1 236.506 0.301878 0.554185 0.269943 0.727241 
50 1 -242.453 494.563 233.713 0.526535 0.245554 0.298925 0.757039 
3 1 -2.49234 499.379 491.06 0.460269 0.168506 0.860992 0.135834 
4 1 258.605 -495.798 491.257 0.171228 0.837422 0.3875 0.345324 
8 1 234.927 -247.641 498.638 0.157289 0.604036 0.732058 0.272932 
11 1 -1.77072 -0.169363 495.227 0.189646 0.368568 0.300819 0.858894 
9 1 -496.545 3.11965 488.522 0.655543 0.354615 0.468412 0.474448 
14 1 -247.259 255.222 496.423 0.803076 0.0832603 0.415143 0.419276 
ITEM: TIMESTEP
80000
ITEM: NUMBER OF ATOMS
50
ITEM: BOX BOUNDS pp pp pp
-5.0000000000000000e+02 5.0000000000000000e+02
-5.0000000000000000e+02 5.0000000000000000e+02
-5.0000000000000000e+02 5.0000000000000000e+02
ITEM: ATOMS id type x y z c_q[1] c_q[2] c_q[3] c_q[4] 
2 1 -247.891 -497.495 -497.504 0.282415 0.764636 0.215772 0.537602 
6 1 -264.611 -262.088 -488.557 0.218798 0.233718 0.775178 0.544612 
8 1 231.879 -241.397 -496.67 0.132011 0.556307 0.766523 0.292469 
5 1 484.375 -243.266 -485.84 0.345989 0.251947 0.628216 0.649738 
10 1 -263.203 -12.1349 -495.279 0.590382 0.413212 0.62061 0.309109 
12 1 270.67 9.73044 -499.577 0.497848 0.513161 0.159594 0.680693 
15 1 -10.7431 244.631 -495.109 0.465795 0.464975 0.749354 0.0728185 
16 1 258.533 245.86 -494.42 0.491205 0.246648 0.375324 0.746334 
13 1 497.831 253.646 -497.244 0.874295 0.173245 0.142622 0.43041 
1 1 491.897 488.766 -485.662 0.637479 0.0342778 0.674143 0.371452 
19 1 -2.00095 -496.747 -232.123 0.603342 0.675295 0.299763 0.300162 
20 1 254.599 -495.539 -256.993 0.381607 0.650284 0.618566 0.221094 
21 1 -497.955 -246.507 -256.758 0.433735 0.173626 0.0701602 0.881366 
22 1 -237.126 -249.555 -225.11 0.0916017 0.824515 0.20665 0.51873 
23 1 3.25191 -240.72 -250.381 0.735706 0.0658453 0.624468 0.253853 
24 1 256.337 -239.391 -266.374 0.703923 0.537546 0.278384 0.371537 
25 1 -492.936 -6.04807 -239.957 0.142959 0.399884 0.76108 0.490319 
26 1 -240.371 -5.13452 -258.889 0.406574 0.0969063 0.796847 0.436281 
28 1 251.037 -5.32073 -243.385 0.207512 0.774651 0.582702 0.131575 
27 1 -3.94667 14.3522 -230.609 0.659478 0.713439 0.200154 0.126619 