LAMMPS data file

60 atoms
60 ellipsoids
0 bonds
0 angles
0 dihedrals

1 atom types
0 bond types
0 angle types
0 dihedral types

-500.000000 500.000000 xlo xhi
-500.000000 500.000000 ylo yhi
-500.000000 500.000000 zlo zhi

Masses

1 203166.000000

Atoms

1 1 -500.000000 -500.000000 -500.000000 1 1.000000 3 0.000000
2 1 -250.000000 -500.000000 -500.000000 1 1.000000 4 0.000000
3 1 0.000000 -500.000000 -500.000000 1 1.000000 5 0.000000
4 1 250.000000 -500.000000 -500.000000 1 1.000000 6 0.000000
5 1 -500.000000 -250.000000 -500.000000 1 1.000000 7 0.000000
6 1 -250.000000 -250.000000 -500.000000 1 1.000000 8 0.000000
7 1 0.000000 -250.000000 -500.000000 1 1.000000 9 0.000000
8 1 250.000000 -250.000000 -500.000000 1 1.000000 10 0.000000
9 1 -500.000000 0.000000 -500.000000 1 1.000000 11 0.000000
10 1 -250.000000 0.000000 -500.000000 1 1.000000 12 0.000000
11 1 0.000000 0.000000 -500.000000 1 1.000000 13 0.000000
12 1 250.000000 0.000000 -500.000000 1 1.000000 14 0.000000
13 1 -500.000000 250.000000 -500.000000 1 1.000000 15 0.000000
14 1 -250.000000 250.000000 -500.000000 1 1.000000 16 0.000000
15 1 0.000000 250.000000 -500.000000 1 1.000000 17 0.000000
16 1 250.000000 250.000000 -500.000000 1 1.000000 18 0.000000
17 1 -500.000000 -500.000000 -250.000000 1 1.000000 19 0.000000
18 1 -250.000000 -500.000000 -250.000000 1 1.000000 20 0.000000
19 1 0.000000 -500.000000 -250.000000 1 1.000000 21 0.000000
20 1 250.000000 -500.000000 -250.000000 1 1.000000 22 0.000000
21 1 -500.000000 -250.000000 -250.000000 1 1.000000 23 0.000000
22 1 -250.000000 -250.000000 -250.000000 1 1.000000 24 0.000000
23 1 0.000000 -250.000000 -250.000000 1 1.000000 25 0.000000
24 1 250.000000 -250.000000 -250.000000 1 1.000000 26 0.000000
25 1 -500.000000 0.000000 -250.000000 1 1.000000 27 0.000000
26 1 -250.000000 0.000000 -250.000000 1 1.000000 28 0.000000
27 1 0.000000 0.000000 -250.000000 1 1.000000 29 0.000000
28 1 250.000000 0.000000 -250.000000 1 1.000000 30 0.000000
29 1 -500.000000 250.000000 -250.000000 1 1.000000 31 0.000000
30 1 -250.000000 250.000000 -250.000000 1 1.000000 32 0.000000
31 1 0.000000 250.000000 -250.000000 1 1.000000 33 0.000000
32 1 250.000000 250.000000 -250.000000 1 1.000000 34 0.000000
33 1 -500.000000 -500.000000 0.000000 1 1.000000 35 0.000000
34 1 -250.000000 -500.000000 0.000000 1 1.000000 36 0.000000
35 1 0.000000 -500.000000 0.000000 1 1.000000 37 0.000000
36 1 250.000000 -500.000000 0.000000 1 1.000000 38 0.000000
37 1 -500.000000 -250.000000 0.000000 1 1.000000 39 0.000000
38 1 -250.000000 -250.000000 0.000000 1 1.000000 40 0.000000
39 1 0.000000 -250.000000 0.000000 1 1.000000 41 0.000000
40 1 250.000000 -250.000000 0.000000 1 1.000000 42 0.000000
41 1 -500.000000 0.000000 0.000000 1 1.000000 43 0.000000
42 1 -250.000000 0.000000 0.000000 1 1.000000 44 0.000000
43 1 0.000000 0.000000 0.000000 1 1.000000 45 0.000000
44 1 250.000000 0.000000 0.000000 1 1.000000 46 0.000000
45 1 -500.000000 250.000000 0.000000 1 1.000000 47 0.000000
46 1 -250.000000 250.000000 0.000000 1 1.000000 48 0.000000
47 1 0.000000 250.000000 0.000000 1 1.000000 49 0.000000
48 1 250.000000 250.000000 0.000000 1 1.000000 50 0.000000
49 1 -500.000000 -500.000000 250.000000 1 1.000000 51 0.000000
50 1 -250.000000 -500.000000 250.000000 1 1.000000 52 0.000000
51 1 0.000000 -500.000000 250.000000 1 1.000000 53 0.000000
52 1 250.000000 -500.000000 250.000000 1 1.000000 54 0.000000
53 1 -500.000000 -250.000000 250.000000 1 1.000000 55 0.000000
54 1 -250.000000 -250.000000 250.000000 1 1.000000 56 0.000000
55 1 0.000000 -250.000000 250.000000 1 1.000000 57 0.000000
56 1 250.000000 -250.000000 250.000000 1 1.000000 58 0.000000
57 1 -500.000000 0.000000 250.000000 1 1.000000 59 0.000000
58 1 -250.000000 0.000000 250.000000 1 1.000000 60 0.000000
59 1 0.000000 0.000000 250.000000 1 1.000000 61 0.000000
60 1 250.000000 0.000000 250.000000 1 1.000000 62 0.000000

Ellipsoids

1 55.000000 110.000000 110.000000 0.498560 0.213325 0.785623 0.297871
2 55.000000 110.000000 110.000000 0.767767 0.005183 0.628410 0.124930
3 55.000000 110.000000 110.000000 0.150057 0.251994 0.732425 0.614439
4 55.000000 110.000000 110.000000 0.472294 0.755997 0.359067 0.276546
5 55.000000 110.000000 110.000000 0.358527 0.204213 0.751784 0.514370
6 55.000000 110.000000 110.000000 0.828995 0.062844 0.246598 0.498003
7 55.000000 110.000000 110.000000 0.772572 0.116080 0.066680 0.620654
8 55.000000 110.000000 110.000000 0.368273 0.234981 0.767156 0.469714
9 55.000000 110.000000 110.000000 0.534073 0.496970 0.553552 0.401705
10 55.000000 110.000000 110.000000 0.288163 0.326607 0.240036 0.867567
11 55.000000 110.000000 110.000000 0.601158 0.317334 0.671583 0.294761
12 55.000000 110.000000 110.000000 0.385433 0.516431 0.515123 0.565145
13 55.000000 110.000000 110.000000 0.743901 0.028584 0.556306 0.369213
14 55.000000 110.000000 110.000000 0.170164 0.467697 0.705034 0.505204
15 55.000000 110.000000 110.000000 0.520823 0.382558 0.733707 0.209920
16 55.000000 110.000000 110.000000 0.227298 0.467346 0.560331 0.644944
17 55.000000 110.000000 110.000000 0.714103 0.231226 0.469602 0.464829
18 55.000000 110.000000 110.000000 0.518949 0.434992 0.590501 0.439071
19 55.000000 110.000000 110.000000 0.149694 0.768148 0.216420 0.583698
20 55.000000 110.000000 110.000000 0.090537 0.943990 0.201489 0.245128
21 55.000000 110.000000 110.000000 0.219127 0.021639 0.887048 0.405784
22 55.000000 110.000000 110.000000 0.893595 0.054099 0.337014 0.291518
23 55.000000 110.000000 110.000000 0.687276 0.461380 0.372477 0.419573
24 55.000000 110.000000 110.000000 0.234975 0.277370 0.239902 0.900166
25 55.000000 110.000000 110.000000 0.578712 0.679871 0.187624 0.409469
26 55.000000 110.000000 110.000000 0.065710 0.816352 0.573683 0.011777
27 55.000000 110.000000 110.000000 0.743115 0.307145 0.594268 0.016971
28 55.000000 110.000000 110.000000 0.755125 0.043463 0.003494 0.654130
29 55.000000 110.000000 110.000000 0.060327 0.124930 0.298051 0.944415
30 55.000000 110.000000 110.000000 0.565531 0.605672 0.542776 0.136857
31 55.000000 110.000000 110.000000 0.103488 0.588299 0.734322 0.322436
32 55.000000 110.000000 110.000000 0.598412 0.295033 0.045203 0.743515
33 55.000000 110.000000 110.000000 0.259024 0.563093 0.314759 0.718860
34 55.000000 110.000000 110.000000 0.615292 0.483243 0.240339 0.574569
35 55.000000 110.000000 110.000000 0.692064 0.565876 0.312464 0.321245
36 55.000000 110.000000 110.000000 0.534139 0.411902 0.403868 0.617999
37 55.000000 110.000000 110.000000 0.071634 0.623641 0.515014 0.583696
38 55.000000 110.000000 110.000000 0.354169 0.680198 0.086828 0.635890
39 55.000000 110.000000 110.000000 0.800138 0.316657 0.302683 0.409745
40 55.000000 110.000000 110.000000 0.592878 0.673549 0.440969 0.019309
41 55.000000 110.000000 110.000000 0.565099 0.429802 0.664806 0.232304
42 55.000000 110.000000 110.000000 0.249133 0.457998 0.272096 0.808786
43 55.000000 110.000000 110.000000 0.185195 0.697757 0.064763 0.688944
44 55.000000 110.000000 110.000000 0.607747 0.174422 0.153716 0.759336
45 55.000000 110.000000 110.000000 0.653198 0.547213 0.005524 0.523316
46 55.000000 110.000000 110.000000 0.615827 0.177771 0.665143 0.383065
47 55.000000 110.000000 110.000000 0.351360 0.285270 0.505858 0.734353
48 55.000000 110.000000 110.000000 0.468782 0.354666 0.350388 0.729166
49 55.000000 110.000000 110.000000 0.579494 0.388758 0.387157 0.602630
50 55.000000 110.000000 110.000000 0.807385 0.024357 0.065093 0.585917
51 55.000000 110.000000 110.000000 0.884637 0.273383 0.294048 0.237098
52 55.000000 110.000000 110.000000 0.198635 0.570909 0.621746 0.498034
53 55.000000 110.000000 110.000000 0.083353 0.703515 0.056570 0.703505
54 55.000000 110.000000 110.000000 0.489737 0.604669 0.627958 0.014234
55 55.000000 110.000000 110.000000 0.066412 0.656570 0.235748 0.713392
56 55.000000 110.000000 110.000000 0.026133 0.574038 0.586378 0.570927
57 55.000000 110.000000 110.000000 0.538930 0.093651 0.812090 0.203207
58 55.000000 110.000000 110.000000 0.004440 0.520687 0.547372 0.655171
59 55.000000 110.000000 110.000000 0.642669 0.444404 0.316744 0.537731
60 55.000000 110.000000 110.000000 0.403051 0.728856 0.525779 0.172845




