ITEM: TIMESTEP
0
ITEM: NUMBER OF ATOMS
25
ITEM: BOX BOUNDS
-500.000000 500.000000
-500.000000 500.000000
-500.000000 500.000000
ITEM: ATOMS id type x y z c_q[1] c_q[2] c_q[3] c_q[4]
1 1 -500.000000 -500.000000 -500.000000 0.063831 0.682189 0.650288 0.328130
2 1 -166.666667 -500.000000 -500.000000 0.344120 0.758636 0.453623 0.316669
3 1 166.666667 -500.000000 -500.000000 0.822902 0.451792 0.330443 0.097592
4 1 -500.000000 -166.666667 -500.000000 0.078044 0.951568 0.245699 0.167511
5 1 -166.666667 -166.666667 -500.000000 0.521660 0.553924 0.610215 0.220628
6 1 166.666667 -166.666667 -500.000000 0.183701 0.436392 0.720839 0.506169
7 1 -500.000000 166.666667 -500.000000 0.206379 0.366673 0.618573 0.663571
8 1 -166.666667 166.666667 -500.000000 0.252097 0.646891 0.310944 0.649071
9 1 166.666667 166.666667 -500.000000 0.004636 0.452348 0.667879 0.591014
10 1 -500.000000 -500.000000 -166.666667 0.697837 0.309700 0.641458 0.075106
11 1 -166.666667 -500.000000 -166.666667 0.557729 0.547632 0.276990 0.558851
12 1 166.666667 -500.000000 -166.666667 0.544116 0.279577 0.055918 0.789080
13 1 -500.000000 -166.666667 -166.666667 0.025121 0.073540 0.852581 0.516785
14 1 -166.666667 -166.666667 -166.666667 0.730612 0.189505 0.241527 0.609885
15 1 166.666667 -166.666667 -166.666667 0.149658 0.656100 0.088357 0.734390
16 1 -500.000000 166.666667 -166.666667 0.477811 0.213655 0.737958 0.425988
17 1 -166.666667 166.666667 -166.666667 0.455592 0.758195 0.451656 0.116549
18 1 166.666667 166.666667 -166.666667 0.506913 0.369035 0.573266 0.527465
19 1 -500.000000 -500.000000 166.666667 0.845996 0.262309 0.176496 0.429341
20 1 -166.666667 -500.000000 166.666667 0.365399 0.185603 0.855356 0.316861
21 1 166.666667 -500.000000 166.666667 0.708700 0.517401 0.479488 0.011469
22 1 -500.000000 -166.666667 166.666667 0.485534 0.590880 0.354291 0.538140
23 1 -166.666667 -166.666667 166.666667 0.168509 0.707268 0.657776 0.196740
24 1 166.666667 -166.666667 166.666667 0.180064 0.607578 0.618650 0.464433
25 1 -500.000000 166.666667 166.666667 0.259983 0.931131 0.072017 0.245393
