ITEM: TIMESTEP
0
ITEM: NUMBER OF ATOMS
25
ITEM: BOX BOUNDS pp pp pp
-5.0000000000000000e+02 5.0000000000000000e+02
-5.0000000000000000e+02 5.0000000000000000e+02
-5.0000000000000000e+02 5.0000000000000000e+02
ITEM: ATOMS id type x y z c_q[1] c_q[2] c_q[3] c_q[4] 
1 1 -500 -500 -500 0.063831 0.682189 0.650288 0.32813 
2 1 -166.667 -500 -500 0.34412 0.758636 0.453623 0.316669 
3 1 166.667 -500 -500 0.822902 0.451792 0.330443 0.097592 
4 1 -500 -166.667 -500 0.078044 0.951568 0.245699 0.167511 
5 1 -166.667 -166.667 -500 0.52166 0.553924 0.610215 0.220628 
6 1 166.667 -166.667 -500 0.183701 0.436392 0.720839 0.506169 
7 1 -500 166.667 -500 0.206379 0.366673 0.618573 0.663571 
8 1 -166.667 166.667 -500 0.252097 0.646891 0.310944 0.649071 
9 1 166.667 166.667 -500 0.004636 0.452348 0.667879 0.591014 
10 1 -500 -500 -166.667 0.697837 0.3097 0.641458 0.075106 
11 1 -166.667 -500 -166.667 0.557729 0.547632 0.27699 0.558851 
12 1 166.667 -500 -166.667 0.544116 0.279577 0.055918 0.78908 
13 1 -500 -166.667 -166.667 0.025121 0.07354 0.852581 0.516785 
14 1 -166.667 -166.667 -166.667 0.730612 0.189505 0.241527 0.609885 
15 1 166.667 -166.667 -166.667 0.149658 0.6561 0.088357 0.73439 
16 1 -500 166.667 -166.667 0.477811 0.213655 0.737958 0.425988 
17 1 -166.667 166.667 -166.667 0.455592 0.758195 0.451656 0.116549 
18 1 166.667 166.667 -166.667 0.506913 0.369035 0.573266 0.527465 
19 1 -500 -500 166.667 0.845996 0.262309 0.176496 0.429341 
20 1 -166.667 -500 166.667 0.365399 0.185603 0.855356 0.316861 
21 1 166.667 -500 166.667 0.7087 0.517401 0.479488 0.011469 
22 1 -500 -166.667 166.667 0.485534 0.59088 0.354291 0.53814 
23 1 -166.667 -166.667 166.667 0.168509 0.707268 0.657776 0.19674 
24 1 166.667 -166.667 166.667 0.180064 0.607578 0.61865 0.464433 
25 1 -500 166.667 166.667 0.259983 0.931131 0.072017 0.245393 
ITEM: TIMESTEP
10000
ITEM: NUMBER OF ATOMS
25
ITEM: BOX BOUNDS pp pp pp
-5.0000000000000000e+02 5.0000000000000000e+02
-5.0000000000000000e+02 5.0000000000000000e+02
-5.0000000000000000e+02 5.0000000000000000e+02
ITEM: ATOMS id type x y z c_q[1] c_q[2] c_q[3] c_q[4] 
3 1 172.334 -497.27 -495.138 0.818675 0.41683 0.376832 0.118414 
5 1 -170.619 -168.167 -498.525 0.508631 0.548343 0.617485 0.243571 
4 1 495.891 -167.682 -497.177 0.10015 0.952683 0.222878 0.180805 
6 1 163.418 -165.768 -499.769 0.23035 0.420393 0.695708 0.534976 
8 1 -167.448 162.305 -497.637 0.274772 0.57203 0.339047 0.6945 
2 1 -172.888 496.018 -494.26 0.307814 0.76128 0.48449 0.301617 
13 1 -497.829 -167.175 -173.484 -0.0142391 0.0351569 0.862779 0.504157 
17 1 -166.49 166.077 -170.248 0.401299 0.795697 0.435194 0.128185 
11 1 -159.691 -496.049 -165.525 0.543067 0.558648 0.243038 0.577862 
10 1 496.433 -496.512 -160.253 0.700375 0.307018 0.637358 0.0948122 
14 1 -169.604 -169.453 -165.165 0.726904 0.142311 0.231276 0.63077 
15 1 166.493 -161.353 -164.307 0.187123 0.642134 0.0740846 0.739703 
16 1 498.39 166.149 -165.83 0.458085 0.243581 0.740892 0.426503 
18 1 165.83 170.102 -167.151 0.492251 0.410311 0.554963 0.530424 
12 1 166.082 494.362 -164.902 0.463014 0.295632 0.058538 0.833543 
21 1 165.565 -496.292 164.928 0.696616 0.513167 0.500142 0.0352714 
22 1 495.305 -169.449 165.781 0.480358 0.592721 0.342778 0.548125 
23 1 -166.04 -166.25 165.79 0.132203 0.712023 0.666472 0.177088 
24 1 165.433 -159.43 162.905 0.157181 0.592977 0.617756 0.491986 
25 1 -494.949 168.286 163.49 0.283857 0.914709 0.0250841 0.286539 
20 1 -167.264 495.225 165.475 0.39021 0.211686 0.844333 0.300045 
19 1 499.142 498.42 168.695 0.859873 0.312539 0.148454 0.375367 
1 1 -497.818 499.626 494.074 0.080176 0.663979 0.674507 0.312641 
7 1 -498.399 166.553 497.199 0.213726 0.404176 0.606945 0.650062 
9 1 168.148 171.072 498.122 0.0286984 0.442111 0.674745 0.590282 
ITEM: TIMESTEP
20000
ITEM: NUMBER OF ATOMS
25
ITEM: BOX BOUNDS pp pp pp
-5.0000000000000000e+02 5.0000000000000000e+02
-5.0000000000000000e+02 5.0000000000000000e+02
-5.0000000000000000e+02 5.0000000000000000e+02
ITEM: ATOMS id type x y z c_q[1] c_q[2] c_q[3] c_q[4] 
3 1 173.68 -494.148 -497.84 0.792333 0.391738 0.448568 0.132428 
4 1 494.592 -171.35 -497.332 0.0683051 0.94501 0.276824 0.160183 
5 1 -171.195 -164.448 -493.976 0.549309 0.527598 0.585698 0.277232 
6 1 165.122 -162.202 -496.114 0.246153 0.411691 0.727808 0.490118 
8 1 -170.684 162.082 -498.39 0.317488 0.540405 0.327988 0.706815 
2 1 -172.63 496.834 -498.657 0.338659 0.738319 0.468446 0.347496 
13 1 499.072 -169.497 -171.885 -0.0136391 0.0312044 0.858846 0.5111 
17 1 -162.89 165.295 -168.449 0.442187 0.789397 0.397834 0.151827 
18 1 162.091 167.505 -171.689 0.515052 0.440558 0.527991 0.511718 
12 1 171.155 495.324 -166.43 0.439095 0.279283 0.0858961 0.849599 
11 1 -163.47 -498.538 -164.963 0.558363 0.535232 0.276112 0.570544 
10 1 494.113 -496.527 -160.757 0.745581 0.272967 0.587405 0.156691 
14 1 -171.914 -169.176 -159.62 0.733915 0.178865 0.21867 0.617705 
15 1 172.8 -166.556 -165.591 0.210886 0.592366 0.0682639 0.774577 
16 1 494.627 169.095 -167.08 0.418182 0.317426 0.727542 0.441642 
20 1 -168.222 -499.382 166.99 0.406982 0.179133 0.835287 0.323377 
21 1 166.691 -499.552 161.724 0.710035 0.464333 0.52554 0.063664 
23 1 -166.944 -166.28 161.513 0.162224 0.70274 0.669379 0.178247 
24 1 164.915 -162.93 160.794 0.187128 0.566011 0.619348 0.510904 
22 1 -499.79 -161.715 166.094 0.494091 0.556086 0.340002 0.575362 
25 1 -493.291 165.782 167.02 0.292334 0.914506 0.0484819 0.275442 
19 1 494.801 499.638 169.211 0.88183 0.30655 0.0720529 0.351015 
7 1 -497.34 165.644 497.281 0.198255 0.425002 0.59896 0.649088 
9 1 167.718 175.698 497.124 -0.0194588 0.437811 0.672281 0.596642 
1 1 -498.32 490.898 494.42 0.0807362 0.710797 0.64894 0.259088 
ITEM: TIMESTEP
30000
ITEM: NUMBER OF ATOMS
25
ITEM: BOX BOUNDS pp pp pp
-5.0000000000000000e+02 5.0000000000000000e+02
-5.0000000000000000e+02 5.0000000000000000e+02
-5.0000000000000000e+02 5.0000000000000000e+02
ITEM: ATOMS id type x y z c_q[1] c_q[2] c_q[3] c_q[4] 
2 1 -175.148 -499.565 -494.84 0.340424 0.751398 0.469029 0.315474 
3 1 172.512 -494.78 -495.584 0.818475 0.384632 0.41787 0.0868432 
5 1 -169.596 -165.669 -492.34 0.53509 0.554782 0.580154 0.263281 
6 1 167.166 -163.765 -497.279 0.237857 0.412795 0.739445 0.475653 
8 1 -167.371 160.449 -496.818 0.320724 0.562739 0.356185 0.673493 
13 1 498.247 -167.877 -172.359 -0.00607695 0.0298249 0.874529 0.484017 
18 1 160.92 162.509 -169.78 0.503773 0.4255 0.560589 0.500902 
16 1 496.204 173.773 -167.845 0.420996 0.284511 0.72522 0.46462 
12 1 171.13 493.188 -168.769 0.466281 0.278112 0.0439693 0.838631 
11 1 -163.103 -499.493 -166.212 0.530875 0.523591 0.286891 0.60143 
10 1 495.828 -495.701 -160.859 0.728919 0.291021 0.593474 0.178251 
15 1 172.34 -172.43 -164.276 0.212705 0.574821 0.121505 0.780752 
14 1 -163.952 -165.587 -163.643 0.763185 0.152685 0.194239 0.597083 
17 1 -163.017 162.034 -162.609 0.453921 0.782352 0.394585 0.161816 
23 1 -167.853 -169.65 157.963 0.174857 0.71158 0.651148 0.1977 
24 1 164.626 -163.532 161.338 0.187867 0.572198 0.650669 0.462521 
21 1 167.479 496.065 164.534 0.6616 0.464553 0.580659 0.0964961 
19 1 494.674 -499.152 168.412 0.871285 0.304563 0.10878 0.369148 
22 1 -494.809 -159.489 166.713 0.482588 0.487432 0.340497 0.643102 
25 1 -496.438 166.124 167.887 0.305064 0.910274 0.0259848 0.278679 
20 1 -163.505 498.163 166.965 0.346184 0.185868 0.879414 0.268775 
4 1 498.08 -173.333 498.386 0.0999309 0.942521 0.277673 0.156735 
7 1 -498.062 165.639 -498.876 0.215363 0.441321 0.561317 0.666166 
9 1 167.836 175.405 498.048 -0.00874512 0.465807 0.669372 0.578695 
1 1 -497.243 492.32 493.82 0.112562 0.69176 0.666587 0.25389 
ITEM: TIMESTEP
40000
ITEM: NUMBER OF ATOMS
25
ITEM: BOX BOUNDS pp pp pp
-5.0000000000000000e+02 5.0000000000000000e+02
-5.0000000000000000e+02 5.0000000000000000e+02
-5.0000000000000000e+02 5.0000000000000000e+02
ITEM: ATOMS id type x y z c_q[1] c_q[2] c_q[3] c_q[4] 
2 1 -178.779 -499.067 -499.917 0.353625 0.756895 0.474388 0.277517 
3 1 179.307 -494.122 -491.787 0.812701 0.390471 0.430584 0.0405879 
5 1 -169.99 -168.272 -487.41 0.536296 0.531525 0.573034 0.318591 
4 1 499.474 -169.336 -498.986 0.102308 0.942674 0.258105 0.185152 
6 1 167.217 -162.806 -499.083 0.32328 0.460193 0.694056 0.449444 
8 1 -167.226 157.675 -491.953 0.31673 0.569857 0.340267 0.677616 
7 1 499.036 163.766 -494.074 0.193306 0.459097 0.534432 0.682821 
15 1 168.889 -175.923 -172.261 0.19848 0.614727 0.138006 0.75078 
13 1 498.772 -164.734 -176.413 -0.00548545 0.0458908 0.87403 0.483668 
18 1 159.83 160.367 -171.937 0.503048 0.437512 0.530159 0.523886 
16 1 499.848 173.538 -166.427 0.412652 0.279723 0.727707 0.471079 
12 1 172.36 498.401 -173.468 0.477022 0.285381 0.0343731 0.830558 
11 1 -163.715 -497.268 -160.62 0.521766 0.446985 0.30356 0.660164 
10 1 499.577 -493.025 -163.66 0.767197 0.266495 0.542673 0.214234 
14 1 -158.093 -169.428 -159.406 0.769101 0.163194 0.199086 0.584992 
17 1 -158.057 165.818 -164.368 0.497517 0.771387 0.35427 0.178692 
20 1 -163.979 -495.874 166.792 0.332563 0.180552 0.886351 0.266804 
19 1 494.138 -497.51 166.956 0.875187 0.313218 0.172105 0.32607 
23 1 -172.707 -171.032 152.908 0.169109 0.707514 0.66349 0.174949 
22 1 -494.185 -155.028 166.377 0.454517 0.494324 0.328767 0.664057 
21 1 167.324 493.671 162.385 0.654193 0.478665 0.579948 0.0810593 
24 1 160.591 -167.518 167.954 0.200301 0.574404 0.653779 0.450014 
25 1 -496.683 164.287 169.137 0.284554 0.893382 0.0208997 0.347076 
9 1 172.009 178.259 493.009 -0.0313 0.467163 0.688653 0.553658 
1 1 -491.816 494.168 495.95 0.123913 0.710172 0.649048 0.242978 
ITEM: TIMESTEP
50000
ITEM: NUMBER OF ATOMS
25
ITEM: BOX BOUNDS pp pp pp
-5.0000000000000000e+02 5.0000000000000000e+02
-5.0000000000000000e+02 5.0000000000000000e+02
-5.0000000000000000e+02 5.0000000000000000e+02
ITEM: ATOMS id type x y z c_q[1] c_q[2] c_q[3] c_q[4] 
2 1 -178.288 -495.099 -496.101 0.362163 0.775283 0.440194 0.272035 
3 1 183.195 -493.699 -490.796 0.870945 0.368569 0.32233 0.0414133 
5 1 -175.04 -172.798 -486.34 0.550793 0.492052 0.590244 0.325765 
6 1 171.507 -162.611 -500.151 0.33262 0.440186 0.698876 0.455163 
7 1 -497.254 158.018 -494.717 0.192805 0.448981 0.510629 0.70746 
8 1 -165.824 158.652 -491.69 0.290241 0.585174 0.352815 0.669966 
15 1 169.479 -172.861 -169.358 0.207474 0.59668 0.128502 0.76447 
13 1 499.935 -167.802 -177.221 0.0201479 0.0420051 0.870741 0.48953 
17 1 -155.441 165.294 -168.652 0.485457 0.756266 0.413519 0.146273 
18 1 154.576 157.723 -170.008 0.50314 0.447005 0.542566 0.502651 
16 1 -496.876 173.13 -170.751 0.392455 0.298469 0.721212 0.486567 
12 1 170.032 497.317 -176.298 0.484678 0.263908 0.0533604 0.832221 
11 1 -158.876 -493.031 -158.404 0.543626 0.457758 0.298437 0.637074 
10 1 496.273 -492.903 -166.588 0.788211 0.236652 0.530875 0.202214 
14 1 -164.447 -161.937 -159.675 0.763535 0.0883751 0.13353 0.625598 
20 1 -167.383 -492.274 165.292 0.322346 0.156656 0.892202 0.274822 
23 1 -169.984 -165.735 149.081 0.204035 0.705438 0.666086 0.1306 
24 1 158.46 -164.05 162.835 0.205277 0.597134 0.631531 0.449957 
21 1 166.186 493.8 165.311 0.645676 0.481409 0.582267 0.110967 
19 1 498.259 -499.9 168.55 0.860895 0.3339 0.193957 0.331286 
22 1 -492.985 -153.379 169.806 0.465242 0.528592 0.289387 0.648379 
25 1 -494.306 165.166 170.504 0.262762 0.888173 0.0727575 0.369881 
1 1 -493.465 499.902 494.554 0.12801 0.703466 0.650366 0.256462 
4 1 498.721 -171.248 497.857 0.105587 0.949829 0.231873 0.181413 
9 1 176.45 183.745 495.248 -0.0056104 0.497844 0.659494 0.563195 
ITEM: TIMESTEP
60000
ITEM: NUMBER OF ATOMS
25
ITEM: BOX BOUNDS pp pp pp
-5.0000000000000000e+02 5.0000000000000000e+02
-5.0000000000000000e+02 5.0000000000000000e+02
-5.0000000000000000e+02 5.0000000000000000e+02
ITEM: ATOMS id type x y z c_q[1] c_q[2] c_q[3] c_q[4] 
3 1 185.443 -493.072 -493.125 0.877603 0.339025 0.327877 0.0858612 
5 1 -179.364 -172.946 -490.239 0.519225 0.491994 0.602768 0.353578 
6 1 169.84 -164.85 -494.206 0.351151 0.434448 0.681203 0.473192 
8 1 -165.235 165.245 -485.077 0.289636 0.562303 0.360745 0.685412 
7 1 496.064 158.543 -494.787 0.202804 0.442229 0.524371 0.698812 
13 1 -498.768 -166.909 -176.54 0.0210651 0.00139587 0.883766 0.467454 
15 1 171.393 -171.144 -172.29 0.20419 0.581017 0.0994154 0.781564 
18 1 161.496 155.22 -177.221 0.546848 0.4661 0.507026 0.476059 
17 1 -162.344 171.482 -168.611 0.444808 0.757376 0.451346 0.157524 
16 1 499.47 178.092 -168.989 0.422884 0.322386 0.699364 0.477626 
12 1 171.68 498.624 -179.581 0.422938 0.298869 0.0486323 0.85407 
11 1 -156.935 -497.432 -157.414 0.522788 0.453639 0.303921 0.654626 
10 1 494.641 -497.808 -162.071 0.772079 0.228266 0.569965 0.164102 
14 1 -169.353 -162.389 -162.453 0.79569 0.0652457 0.110166 0.592017 
20 1 -172.983 -495.235 163.748 0.371044 0.164466 0.881975 0.239579 
23 1 -167.11 -171.231 152.278 0.202705 0.738194 0.635378 0.101367 
24 1 158.055 -168.862 160.534 0.214153 0.604903 0.649446 0.407984 
19 1 496.042 -499.029 173.733 0.837423 0.357671 0.210986 0.355358 
22 1 -492.712 -152.407 173.847 0.441917 0.544811 0.285436 0.653006 
25 1 -495.396 165.396 170.757 0.247215 0.911701 0.0680005 0.321033 
21 1 165.947 494.192 167.779 0.681877 0.463875 0.547646 0.141235 
2 1 -178.687 -494.808 496.818 0.414178 0.728433 0.469794 0.277735 
4 1 491.803 -174.872 490.771 0.119302 0.951192 0.251003 0.134158 
9 1 174.159 181.918 -498.875 -0.0414031 0.483787 0.648569 0.58617 
1 1 -485.115 498.949 496.74 0.160736 0.706709 0.644847 0.242689 
ITEM: TIMESTEP
70000
ITEM: NUMBER OF ATOMS
25
ITEM: BOX BOUNDS pp pp pp
-5.0000000000000000e+02 5.0000000000000000e+02
-5.0000000000000000e+02 5.0000000000000000e+02
-5.0000000000000000e+02 5.0000000000000000e+02
ITEM: ATOMS id type x y z c_q[1] c_q[2] c_q[3] c_q[4] 
3 1 184.214 -491.264 -495.431 0.862192 0.322574 0.383963 0.0717141 
5 1 -177.428 -173.898 -490.546 0.531213 0.517692 0.555034 0.37649 
6 1 165.861 -164.569 -492.88 0.346048 0.419275 0.702299 0.459604 
8 1 -163.651 165.709 -488.472 0.260112 0.531751 0.36629 0.717924 
7 1 498.486 154.778 -496.033 0.204381 0.416425 0.535412 0.705799 
9 1 166.5 185.061 -493.201 -0.00803685 0.455244 0.661698 0.595688 
13 1 -498.921 -171.443 -174.545 0.0145027 0.0241369 0.867198 0.497167 
15 1 170.687 -173.22 -177.849 0.219741 0.596763 0.111428 0.763657 
14 1 -169.77 -164.292 -167.791 0.818066 0.102754 0.104006 0.55623 
18 1 163.109 153.699 -173.302 0.56042 0.467621 0.512342 0.452511 
16 1 499.621 183.185 -172.506 0.431957 0.3398 0.691691 0.468521 
12 1 167.421 497.858 -177.272 0.422894 0.319652 0.0431424 0.84683 
11 1 -156.734 -498.417 -158.182 0.505823 0.450388 0.342947 0.650908 
10 1 496.53 -498.237 -161.405 0.706691 0.235196 0.646004 0.167182 
17 1 -161.296 168.041 -161.506 0.413485 0.792006 0.433527 0.117518 
23 1 -171.467 -168.175 152.34 0.206254 0.722468 0.652084 0.101415 
24 1 156.905 -167.831 162.324 0.178583 0.602148 0.645524 0.43454 
20 1 -181.061 -498.714 167.597 0.393423 0.109483 0.889069 0.206853 
22 1 -492.129 -155.242 177.536 0.450898 0.552295 0.276644 0.644306 
25 1 498.78 165.411 170.948 0.235518 0.926048 0.116606 0.27087 
19 1 -498.221 498.923 168.021 0.833779 0.326332 0.198773 0.398509 
21 1 163.912 491.18 169.887 0.662307 0.464274 0.569428 0.146799 
1 1 -489.624 -498.37 496.072 0.188557 0.713516 0.637252 0.221925 
2 1 -176.775 -490.22 495.943 0.399868 0.723624 0.481927 0.29021 
4 1 491.873 -174.331 492.402 0.107242 0.951387 0.266623 0.110789 
ITEM: TIMESTEP
80000
ITEM: NUMBER OF ATOMS
25
ITEM: BOX BOUNDS pp pp pp
-5.0000000000000000e+02 5.0000000000000000e+02
-5.0000000000000000e+02 5.0000000000000000e+02
-5.0000000000000000e+02 5.0000000000000000e+02
ITEM: ATOMS id type x y z c_q[1] c_q[2] c_q[3] c_q[4] 
3 1 178.962 -487.232 -498.285 0.882441 0.313983 0.346804 0.0493886 
5 1 -177.219 -173.621 -485.989 0.475774 0.524451 0.584031 0.396861 
6 1 168.789 -162.813 -492.605 0.351497 0.368969 0.697806 0.503367 
7 1 -495.617 158.445 -495.739 0.218556 0.415613 0.534045 0.703061 
8 1 -165.842 168.251 -492.124 0.284451 0.511828 0.412459 0.697852 
9 1 170.636 181.788 -487.515 0.0345702 0.42039 0.654425 0.627539 
10 1 -498.044 -492.211 -167.342 0.751733 0.219832 0.595313 0.179371 
15 1 164.192 -170.049 -174.685 0.185906 0.599524 0.120004 0.769161 
13 1 497.918 -169.363 -170.096 -0.030109 0.0356864 0.850417 0.524034 
18 1 174.799 148.718 -176.602 0.611661 0.452853 0.496735 0.417192 
16 1 495.418 187.174 -173.895 0.430279 0.372126 0.709683 0.41561 
12 1 174.337 498.038 -183.778 0.382906 0.296454 0.00276567 0.874923 
11 1 -162.466 -491.243 -158.273 0.515199 0.440885 0.3287 0.657379 
14 1 -166.081 -164.13 -166.044 0.811397 0.142083 0.163481 0.542882 
17 1 -160.418 167.339 -157.491 0.411807 0.786341 0.43748 0.14385 
23 1 -166.752 -168.122 152.312 0.235238 0.704032 0.651685 0.155915 
24 1 157.736 -168.713 164.604 0.191518 0.598234 0.615758 0.475687 
25 1 498.77 160.384 165.026 0.208817 0.910882 0.17111 0.312107 
20 1 -181.804 -499.702 166.655 0.356577 0.0914102 0.907807 0.200957 
22 1 -485.739 -154.865 176.864 0.477102 0.567943 0.238976 0.626661 
19 1 -499.429 498.721 167.935 0.852981 0.277574 0.166386 0.409501 
21 1 164.86 492.33 171.657 0.670767 0.48654 0.54696 0.119103 
2 1 -176.973 -485.024 499.152 0.447287 0.701143 0.48132 0.276881 
4 1 494.794 -171.806 495.895 0.107348 0.947955 0.269509 0.131233 
1 1 -488.328 495.926 492.89 0.195751 0.739225 0.593203 0.25167 
ITEM: TIMESTEP
90000
ITEM: NUMBER OF ATOMS
25
ITEM: BOX BOUNDS pp pp pp
-5.0000000000000000e+02 5.0000000000000000e+02
-5.0000000000000000e+02 5.0000000000000000e+02
-5.0000000000000000e+02 5.0000000000000000e+02
ITEM: ATOMS id type x y z c_q[1] c_q[2] c_q[3] c_q[4] 
3 1 177.879 -486.555 -497.405 0.848825 0.326506 0.413807 0.0406579 
5 1 -175.22 -175.068 -484.368 0.50033 0.51199 0.59179 0.370569 
6 1 167.822 -163.748 -499.479 0.344399 0.413261 0.671046 0.510198 
7 1 499.14 158.176 -498.622 0.226499 0.431918 0.516242 0.704016 
8 1 -169.553 173.055 -490.854 0.27165 0.533778 0.434644 0.672586 
9 1 165.805 181.575 -488.909 -0.0127492 0.400723 0.666037 0.62901 
12 1 173.948 -497.34 -186.323 0.385879 0.287545 0.0119222 0.876512 
15 1 166.301 -169.325 -168.6 0.19064 0.571832 0.132944 0.78676 
13 1 496.859 -171.191 -171.716 -0.049158 0.0249161 0.85139 0.521629 
18 1 174.345 141.905 -171.018 0.630917 0.464739 0.469544 0.406804 
16 1 499.115 192.352 -176.602 0.390367 0.408586 0.687197 0.456544 
10 1 -499.5 -490.206 -163.342 0.751077 0.210406 0.607015 0.152136 
11 1 -162.177 -490.447 -158.482 0.49345 0.505412 0.319886 0.631457 
14 1 -167.812 -163.343 -164.628 0.820559 0.13226 0.159815 0.532588 
17 1 -159.135 170.642 -158.397 0.424833 0.788046 0.415642 0.160442 
23 1 -165.209 -167.005 156.716 0.263117 0.680629 0.657609 0.187255 
24 1 157.908 -159.924 163.585 0.231497 0.592337 0.610244 0.472386 
25 1 493.235 164.635 164.289 0.163676 0.912646 0.184786 0.325795 
20 1 -178.258 496.315 163.333 0.334223 0.0822435 0.919756 0.188626 
22 1 -483.553 -156.98 179.503 0.498018 0.547791 0.204467 0.640388 
21 1 161.84 492.732 170.552 0.641748 0.520354 0.550102 0.121568 
19 1 496.984 497.829 167.408 0.847868 0.310897 0.136479 0.40723 
1 1 -491.101 -498.196 491.707 0.213404 0.734523 0.60298 0.226606 
2 1 -175.182 -484.076 -498.549 0.468834 0.693887 0.46413 0.288615 
4 1 499.318 -174.463 495.448 0.124162 0.933367 0.288372 0.173928 
ITEM: TIMESTEP
100000
ITEM: NUMBER OF ATOMS
25
ITEM: BOX BOUNDS pp pp pp
-5.0000000000000000e+02 5.0000000000000000e+02
-5.0000000000000000e+02 5.0000000000000000e+02
-5.0000000000000000e+02 5.0000000000000000e+02
ITEM: ATOMS id type x y z c_q[1] c_q[2] c_q[3] c_q[4] 
2 1 -176.835 -481.139 -492.095 0.449311 0.729047 0.439832 0.270476 
3 1 185.696 -490.587 -497.011 0.839433 0.341848 0.421466 0.0293056 
5 1 -169.801 -171.053 -482.82 0.471927 0.510992 0.606274 0.385493 
7 1 499.749 157.582 -499.281 0.233096 0.447899 0.518239 0.690276 
8 1 -172.395 175.06 -493.313 0.259767 0.492711 0.447405 0.699704 
9 1 165.047 181.548 -490.796 0.00581628 0.429483 0.657906 0.618604 
12 1 175.555 -495.985 -186.779 0.412158 0.286612 0.0425154 0.863812 
15 1 160.827 -172.984 -169.039 0.197322 0.608006 0.0994058 0.762569 
13 1 491.267 -171.304 -176.889 0.00536467 -0.0191467 0.856928 0.515052 
18 1 176.877 143.117 -172.333 0.61517 0.503034 0.433448 0.425024 
16 1 -498.497 193.691 -182.029 0.415795 0.395819 0.650716 0.497001 
10 1 -497.827 -492.789 -159.254 0.751907 0.203201 0.621225 0.0861717 
11 1 -156.943 -494.199 -164.418 0.511999 0.470203 0.30814 0.649474 
14 1 -166.648 -162.17 -161.539 0.830061 0.146934 0.128155 0.52248 
17 1 -157.942 172.525 -157.822 0.46423 0.749714 0.435811 0.180243 
23 1 -169.707 -167.3 155.094 0.270831 0.665689 0.65409 0.235956 
25 1 490.482 164.047 165.085 0.167627 0.89551 0.201646 0.359587 
20 1 -182.72 499.315 166.222 0.297068 0.02807 0.93268 0.20266 
22 1 -483.198 -158.402 181.875 0.509608 0.538637 0.239087 0.626903 
24 1 154.655 -163.092 166.878 0.207098 0.579017 0.656222 0.437289 
21 1 161.523 494.559 168.426 0.630378 0.541248 0.548926 0.0914069 
19 1 494.29 496.663 171.373 0.839663 0.316894 0.127641 0.4222 
4 1 493.798 -173.511 494.563 0.0927517 0.943636 0.294154 0.120095 
6 1 168.833 -165.991 498.03 0.297004 0.450587 0.694235 0.476233 
1 1 -489.731 499.469 487.21 0.188174 0.716187 0.627865 0.239692 
ITEM: TIMESTEP
110000
ITEM: NUMBER OF ATOMS
25
ITEM: BOX BOUNDS pp pp pp
-5.0000000000000000e+02 5.0000000000000000e+02
-5.0000000000000000e+02 5.0000000000000000e+02
-5.0000000000000000e+02 5.0000000000000000e+02
ITEM: ATOMS id type x y z c_q[1] c_q[2] c_q[3] c_q[4] 
2 1 -177.849 -482.197 -492.13 0.385281 0.765788 0.475625 0.197252 
3 1 193.833 -494.585 -494.172 0.840925 0.338184 0.422436 -0.00496488 
5 1 -168.946 -174.693 -484.319 0.441053 0.496507 0.603688 0.441038 
7 1 499.71 156.822 -496.51 0.238557 0.407773 0.546122 0.691783 
8 1 -172.374 170.238 -494.247 0.261394 0.492673 0.42147 0.71506 
9 1 165.342 182.685 -493.03 0.00781159 0.440029 0.643043 0.626744 
12 1 173.738 -497.148 -187.495 0.389074 0.273316 0.0405702 0.878791 
15 1 159.768 -168.099 -169.188 0.174325 0.618824 0.0800381 0.761749 
13 1 493.402 -166.852 -181.265 0.0233105 -0.0343858 0.855454 0.516209 
18 1 176.564 143.834 -178.446 0.580183 0.53406 0.452924 0.415965 
16 1 499.935 197.823 -177.965 0.43986 0.373776 0.670596 0.465957 
10 1 -499.022 -496.096 -155 0.771674 0.169971 0.607851 0.078391 
11 1 -157.881 -493.482 -167.052 0.526649 0.453854 0.305125 0.650812 
14 1 -163.674 -159.185 -162.24 0.828797 0.106902 0.0863536 0.542411 
17 1 -160.003 173.865 -152.173 0.419821 0.785198 0.417285 0.1819 
23 1 -170.229 -169.259 153.752 0.278535 0.670564 0.652668 0.216302 
24 1 157.189 -163.325 165.721 0.204061 0.572699 0.654954 0.448788 
25 1 487.898 159.708 164.04 0.147812 0.914404 0.200064 0.31936 
20 1 -182.343 498.479 164.519 0.343615 -0.000109581 0.9141 0.215291 
21 1 161.128 493.203 166.458 0.616044 0.567977 0.539945 0.0796978 
19 1 491.246 -497.383 172.582 0.824276 0.372035 0.101623 0.414526 
22 1 -485.109 -160.679 180.667 0.481841 0.532835 0.221696 0.659369 
1 1 -490.377 -497.438 486.151 0.176595 0.675935 0.66155 0.272539 
4 1 497.9 -175.191 496.122 0.0905633 0.947057 0.30226 0.0593302 
6 1 171.782 -161.137 490.228 0.302677 0.425243 0.703244 0.482703 
ITEM: TIMESTEP
120000
ITEM: NUMBER OF ATOMS
25
ITEM: BOX BOUNDS pp pp pp
-5.0000000000000000e+02 5.0000000000000000e+02
-5.0000000000000000e+02 5.0000000000000000e+02
-5.0000000000000000e+02 5.0000000000000000e+02
ITEM: ATOMS id type x y z c_q[1] c_q[2] c_q[3] c_q[4] 
2 1 -175.647 -482.693 -495.175 0.3659 0.75493 0.507669 0.19614 
3 1 195.428 -492.009 -492.783 0.86129 0.294849 0.41244 -0.0337158 
5 1 -167.286 -172.364 -487.102 0.459495 0.467474 0.624812 0.424197 
7 1 493.387 155.408 -496.847 0.26375 0.373867 0.567094 0.684882 
8 1 -171.035 178.511 -498.052 0.259943 0.478804 0.416694 0.727697 
9 1 163.012 184.52 -487.637 0.00729533 0.391023 0.632213 0.668846 
11 1 -153.622 -497.354 -168.388 0.545261 0.457266 0.299548 0.635507 
12 1 175.958 -497.705 -189.085 0.372514 0.246946 0.0121082 0.894486 
13 1 495.99 -169.889 -181.33 0.0155369 0.00974288 0.834849 0.550173 
18 1 175.328 139.254 -178.438 0.547444 0.598422 0.424756 0.402217 
16 1 -499.215 201.354 -175.307 0.430498 0.421312 0.6421 0.47421 
10 1 497.131 -499.465 -155.75 0.780675 0.171291 0.599405 0.0438123 
14 1 -160.419 -157.638 -165.942 0.834658 0.0858628 0.072098 0.539236 
15 1 155.911 -165.572 -165.272 0.172618 0.608796 0.0714606 0.771015 
17 1 -158.251 170.174 -147.531 0.467905 0.772369 0.365749 0.225251 
23 1 -170.039 -168.302 155.196 0.294202 0.653931 0.655078 0.2381 
24 1 151.654 -163.203 161.398 0.209649 0.559515 0.651699 0.467203 
25 1 492.339 161.087 163.239 0.14183 0.926022 0.245202 0.249486 
20 1 -190.509 495.884 166.152 0.298826 0.00368697 0.930092 0.213587 
21 1 158.447 495.915 165.835 0.623446 0.574999 0.525095 0.0704689 
19 1 491.025 -488.951 171.768 0.815716 0.40224 0.115307 0.399394 
22 1 -483.653 -159.604 181.199 0.480529 0.568577 0.215359 0.632006 
1 1 -487.336 -494.925 484.102 0.149962 0.669343 0.66716 0.290498 
4 1 493.808 -176.566 499.055 0.0925674 0.951871 0.291511 -0.0198406 
6 1 166.999 -160.033 490.812 0.335795 0.437127 0.65574 0.515914 
ITEM: TIMESTEP
130000
ITEM: NUMBER OF ATOMS
25
ITEM: BOX BOUNDS pp pp pp
-5.0000000000000000e+02 5.0000000000000000e+02
-5.0000000000000000e+02 5.0000000000000000e+02
-5.0000000000000000e+02 5.0000000000000000e+02
ITEM: ATOMS id type x y z c_q[1] c_q[2] c_q[3] c_q[4] 
2 1 -173.994 -488.117 -492.762 0.368756 0.769272 0.473282 0.219645 
3 1 196.746 -489.822 -493.343 0.870524 0.269328 0.411887 0.000361901 
5 1 -167.561 -167.606 -481.783 0.458754 0.444674 0.635607 0.433374 
7 1 497.514 153.882 -495.655 0.230652 0.331214 0.600297 0.690464 
8 1 -169.793 178.754 499.743 0.246112 0.492005 0.391362 0.737696 
9 1 159.599 182.436 -490.11 0.0118716 0.437129 0.626269 0.645418 
12 1 175.159 -492.219 -188.694 0.350317 0.259037 0.00299518 0.900094 
14 1 -161.752 -157.824 -167.986 0.832216 0.0450582 0.0406317 0.551122 
13 1 495.345 -165.528 -179.718 -0.00482497 -0.0106978 0.834582 0.550759 
18 1 176.613 140.06 -178.313 0.573016 0.597083 0.467569 0.310683 
16 1 499.616 197.657 -171.531 0.471116 0.410905 0.600063 0.499129 
11 1 -149.213 492.531 -169.19 0.507216 0.467321 0.315583 0.651728 
15 1 158.157 -166.934 -163.535 0.217396 0.583307 0.0420984 0.781486 
17 1 -162.673 167.95 -149.706 0.477161 0.764746 0.378642 0.210027 
10 1 495.594 498.138 -151.504 0.763341 0.16767 0.623759 0.0110773 
23 1 -169.572 -171.292 159.049 0.301688 0.624429 0.683931 0.226521 
24 1 156.054 -165.999 163.795 0.245671 0.579904 0.640774 0.439051 
25 1 488.795 158.77 163.554 0.193727 0.899971 0.311926 0.234997 
20 1 -194.821 495.354 166.312 0.297031 -0.0284038 0.936596 0.183724 
19 1 491.713 -489.051 177.501 0.807542 0.392587 0.13617 0.418579 
22 1 -483.731 -158.843 182.067 0.477122 0.567398 0.250531 0.622614 
21 1 159.061 494.133 166.908 0.630092 0.572693 0.524358 0.00742548 
1 1 -487.49 -493.559 487.276 0.159539 0.646315 0.68906 0.286392 
4 1 493.354 -184.076 499.479 0.124653 0.94337 0.30672 0.0209061 
6 1 167.388 -157.146 489.722 0.400158 0.412159 0.644565 0.504514 
ITEM: TIMESTEP
140000
ITEM: NUMBER OF ATOMS
25
ITEM: BOX BOUNDS pp pp pp
-5.0000000000000000e+02 5.0000000000000000e+02
-5.0000000000000000e+02 5.0000000000000000e+02
-5.0000000000000000e+02 5.0000000000000000e+02
ITEM: ATOMS id type x y z c_q[1] c_q[2] c_q[3] c_q[4] 
2 1 -173.357 -486.788 -492.556 0.361518 0.761311 0.496267 0.208396 
3 1 195.178 -487.972 -497.134 0.860544 0.31339 0.399811 -0.0374418 
5 1 -168.66 -165.715 -480.63 0.472809 0.393552 0.624437 0.481297 
7 1 498.202 155.125 -499.706 0.208643 0.330016 0.57389 0.719867 
8 1 -164.098 175.468 -492.134 0.268408 0.496102 0.397662 0.723674 
9 1 155.947 184.785 -492.247 0.015688 0.453249 0.606001 0.653515 
12 1 175.902 -488.847 -185.425 0.348297 0.324265 -0.0220388 0.879236 
13 1 -498.411 -170.478 -184.945 -0.0114089 -0.000477897 0.838331 0.545042 
18 1 178.453 144.196 -179.901 0.596478 0.602735 0.432955 0.305735 
16 1 499.789 196.634 -174.463 0.483356 0.37185 0.626966 0.484775 
11 1 -153.184 492.047 -170.746 0.548842 0.428936 0.269147 0.665091 
14 1 -152.127 -161.506 -165.907 0.855027 0.0756438 0.0458798 0.510981 
15 1 163.328 -164.782 -160.798 0.199833 0.616921 0.0873859 0.7562 
17 1 -164.177 164.446 -149.205 0.481078 0.760967 0.361569 0.242406 
10 1 499.241 497.57 -150.15 0.755468 0.175947 0.6307 0.0229926 
23 1 -166.96 -173.79 160.657 0.315108 0.616008 0.677361 0.249844 
24 1 161.338 -168.859 164.243 0.29618 0.561058 0.643121 0.42882 
25 1 496.138 160.187 163.037 0.167635 0.916476 0.286014 0.223979 
21 1 151.68 494.523 164.034 0.628113 0.607383 0.486316 -0.00752182 
19 1 494.266 -486.742 177.942 0.820248 0.367455 0.160494 0.407936 
22 1 -481.453 -161.344 179.708 0.473546 0.574468 0.178373 0.643369 
20 1 -197.629 495.105 169.436 0.321433 -0.0376922 0.926903 0.19003 
1 1 -482.954 -491.127 488.99 0.215344 0.637161 0.679354 0.293481 
4 1 489.703 -187.281 493.777 0.102337 0.944252 0.311559 0.0290778 
6 1 165.221 -155.786 489.349 0.361876 0.377791 0.655399 0.544768 
ITEM: TIMESTEP
150000
ITEM: NUMBER OF ATOMS
25
ITEM: BOX BOUNDS pp pp pp
-5.0000000000000000e+02 5.0000000000000000e+02
-5.0000000000000000e+02 5.0000000000000000e+02
-5.0000000000000000e+02 5.0000000000000000e+02
ITEM: ATOMS id type x y z c_q[1] c_q[2] c_q[3] c_q[4] 
2 1 -169.558 -484.064 -484.723 0.345948 0.709546 0.56896 0.230538 
3 1 193.839 -489.54 -498.136 0.864946 0.341178 0.367995 -0.0067393 
5 1 -169.601 -163.768 -472.269 0.436129 0.398952 0.62995 0.503777 
7 1 494.18 152.477 -497.039 0.146587 0.333771 0.563809 0.7411 
8 1 -163.928 173.069 -493.409 0.322128 0.493953 0.415537 0.692512 
9 1 158.366 184.877 -495.667 0.0492726 0.49234 0.572274 0.653969 
12 1 175.397 -484.777 -185.796 0.396866 0.260251 -0.0362748 0.879461 
13 1 -498.882 -167.961 -182.376 0.030701 0.0161435 0.842535 0.537524 
18 1 184.425 140.69 -175.927 0.626938 0.59927 0.427316 0.25539 
16 1 494.834 192 -176.673 0.501069 0.357179 0.626716 0.478099 