LAMMPS data file

50 atoms
50 ellipsoids
0 bonds
0 angles
0 dihedrals

1 atom types
0 bond types
0 angle types
0 dihedral types

-500.000000 500.000000 xlo xhi
-500.000000 500.000000 ylo yhi
-500.000000 500.000000 zlo zhi

Masses

1 203166.000000

Atoms

1 1 -500.000000 -500.000000 -500.000000 1 1.000000 3 0.000000
2 1 -250.000000 -500.000000 -500.000000 1 1.000000 4 0.000000
3 1 0.000000 -500.000000 -500.000000 1 1.000000 5 0.000000
4 1 250.000000 -500.000000 -500.000000 1 1.000000 6 0.000000
5 1 -500.000000 -250.000000 -500.000000 1 1.000000 7 0.000000
6 1 -250.000000 -250.000000 -500.000000 1 1.000000 8 0.000000
7 1 0.000000 -250.000000 -500.000000 1 1.000000 9 0.000000
8 1 250.000000 -250.000000 -500.000000 1 1.000000 10 0.000000
9 1 -500.000000 0.000000 -500.000000 1 1.000000 11 0.000000
10 1 -250.000000 0.000000 -500.000000 1 1.000000 12 0.000000
11 1 0.000000 0.000000 -500.000000 1 1.000000 13 0.000000
12 1 250.000000 0.000000 -500.000000 1 1.000000 14 0.000000
13 1 -500.000000 250.000000 -500.000000 1 1.000000 15 0.000000
14 1 -250.000000 250.000000 -500.000000 1 1.000000 16 0.000000
15 1 0.000000 250.000000 -500.000000 1 1.000000 17 0.000000
16 1 250.000000 250.000000 -500.000000 1 1.000000 18 0.000000
17 1 -500.000000 -500.000000 -250.000000 1 1.000000 19 0.000000
18 1 -250.000000 -500.000000 -250.000000 1 1.000000 20 0.000000
19 1 0.000000 -500.000000 -250.000000 1 1.000000 21 0.000000
20 1 250.000000 -500.000000 -250.000000 1 1.000000 22 0.000000
21 1 -500.000000 -250.000000 -250.000000 1 1.000000 23 0.000000
22 1 -250.000000 -250.000000 -250.000000 1 1.000000 24 0.000000
23 1 0.000000 -250.000000 -250.000000 1 1.000000 25 0.000000
24 1 250.000000 -250.000000 -250.000000 1 1.000000 26 0.000000
25 1 -500.000000 0.000000 -250.000000 1 1.000000 27 0.000000
26 1 -250.000000 0.000000 -250.000000 1 1.000000 28 0.000000
27 1 0.000000 0.000000 -250.000000 1 1.000000 29 0.000000
28 1 250.000000 0.000000 -250.000000 1 1.000000 30 0.000000
29 1 -500.000000 250.000000 -250.000000 1 1.000000 31 0.000000
30 1 -250.000000 250.000000 -250.000000 1 1.000000 32 0.000000
31 1 0.000000 250.000000 -250.000000 1 1.000000 33 0.000000
32 1 250.000000 250.000000 -250.000000 1 1.000000 34 0.000000
33 1 -500.000000 -500.000000 0.000000 1 1.000000 35 0.000000
34 1 -250.000000 -500.000000 0.000000 1 1.000000 36 0.000000
35 1 0.000000 -500.000000 0.000000 1 1.000000 37 0.000000
36 1 250.000000 -500.000000 0.000000 1 1.000000 38 0.000000
37 1 -500.000000 -250.000000 0.000000 1 1.000000 39 0.000000
38 1 -250.000000 -250.000000 0.000000 1 1.000000 40 0.000000
39 1 0.000000 -250.000000 0.000000 1 1.000000 41 0.000000
40 1 250.000000 -250.000000 0.000000 1 1.000000 42 0.000000
41 1 -500.000000 0.000000 0.000000 1 1.000000 43 0.000000
42 1 -250.000000 0.000000 0.000000 1 1.000000 44 0.000000
43 1 0.000000 0.000000 0.000000 1 1.000000 45 0.000000
44 1 250.000000 0.000000 0.000000 1 1.000000 46 0.000000
45 1 -500.000000 250.000000 0.000000 1 1.000000 47 0.000000
46 1 -250.000000 250.000000 0.000000 1 1.000000 48 0.000000
47 1 0.000000 250.000000 0.000000 1 1.000000 49 0.000000
48 1 250.000000 250.000000 0.000000 1 1.000000 50 0.000000
49 1 -500.000000 -500.000000 250.000000 1 1.000000 51 0.000000
50 1 -250.000000 -500.000000 250.000000 1 1.000000 52 0.000000

Ellipsoids

1 55.000000 110.000000 110.000000 0.733830 0.641542 0.214623 0.062075
2 55.000000 110.000000 110.000000 0.384179 0.546157 0.056046 0.742279
3 55.000000 110.000000 110.000000 0.645854 0.025456 0.541943 0.537143
4 55.000000 110.000000 110.000000 0.580489 0.406489 0.325175 0.626147
5 55.000000 110.000000 110.000000 0.328278 0.530038 0.663972 0.412837
6 55.000000 110.000000 110.000000 0.070310 0.209873 0.765046 0.604743
7 55.000000 110.000000 110.000000 0.531291 0.663164 0.509176 0.136686
8 55.000000 110.000000 110.000000 0.660809 0.277545 0.505404 0.480486
9 55.000000 110.000000 110.000000 0.086725 0.156768 0.446129 0.876853
10 55.000000 110.000000 110.000000 0.480208 0.657341 0.065145 0.577113
11 55.000000 110.000000 110.000000 0.421497 0.266258 0.659627 0.562441
12 55.000000 110.000000 110.000000 0.018783 0.594914 0.742670 0.306865
13 55.000000 110.000000 110.000000 0.685748 0.033439 0.426156 0.589086
14 55.000000 110.000000 110.000000 0.798058 0.362957 0.155413 0.455206
15 55.000000 110.000000 110.000000 0.226397 0.368634 0.126969 0.892598
16 55.000000 110.000000 110.000000 0.772306 0.580061 0.132359 0.222604
17 55.000000 110.000000 110.000000 0.293622 0.658218 0.311400 0.619327
18 55.000000 110.000000 110.000000 0.412471 0.504814 0.588479 0.478249
19 55.000000 110.000000 110.000000 0.482952 0.748674 0.338486 0.302774
20 55.000000 110.000000 110.000000 0.487745 0.392638 0.514848 0.585553
21 55.000000 110.000000 110.000000 0.457440 0.341897 0.155362 0.806051
22 55.000000 110.000000 110.000000 0.544383 0.015727 0.615313 0.569904
23 55.000000 110.000000 110.000000 0.102006 0.047788 0.934109 0.338751
24 55.000000 110.000000 110.000000 0.873728 0.463724 0.088874 0.116883
25 55.000000 110.000000 110.000000 0.234164 0.832630 0.368039 0.341236
26 55.000000 110.000000 110.000000 0.474410 0.800759 0.074524 0.358004
27 55.000000 110.000000 110.000000 0.738405 0.010745 0.214930 0.639099
28 55.000000 110.000000 110.000000 0.285926 0.383639 0.849454 0.222477
29 55.000000 110.000000 110.000000 0.306097 0.627479 0.715934 0.003647
30 55.000000 110.000000 110.000000 0.268383 0.246863 0.051071 0.929742
31 55.000000 110.000000 110.000000 0.553637 0.171171 0.780604 0.234188
32 55.000000 110.000000 110.000000 0.545380 0.592330 0.587991 0.077278
33 55.000000 110.000000 110.000000 0.339962 0.719000 0.431527 0.425734
34 55.000000 110.000000 110.000000 0.624526 0.718879 0.147569 0.267216
35 55.000000 110.000000 110.000000 0.158465 0.163370 0.551058 0.802829
36 55.000000 110.000000 110.000000 0.481882 0.614127 0.227465 0.582149
37 55.000000 110.000000 110.000000 0.183542 0.615636 0.511249 0.570902
38 55.000000 110.000000 110.000000 0.390090 0.509439 0.766981 0.006494
39 55.000000 110.000000 110.000000 0.258614 0.949762 0.007816 0.176094
40 55.000000 110.000000 110.000000 0.338253 0.513758 0.314345 0.723066
41 55.000000 110.000000 110.000000 0.786040 0.405909 0.190747 0.425435
42 55.000000 110.000000 110.000000 0.649318 0.528990 0.513777 0.185980
43 55.000000 110.000000 110.000000 0.218098 0.113742 0.735262 0.631574
44 55.000000 110.000000 110.000000 0.181586 0.277069 0.651298 0.682694
45 55.000000 110.000000 110.000000 0.449971 0.228469 0.814779 0.285416
46 55.000000 110.000000 110.000000 0.536033 0.519099 0.660340 0.084595
47 55.000000 110.000000 110.000000 0.404615 0.388719 0.814577 0.147133
48 55.000000 110.000000 110.000000 0.630631 0.146798 0.069420 0.758904
49 55.000000 110.000000 110.000000 0.318699 0.216222 0.674210 0.630174
50 55.000000 110.000000 110.000000 0.161082 0.784136 0.594011 0.079586




