LAMMPS data file

65 atoms
65 ellipsoids
0 bonds
0 angles
0 dihedrals

1 atom types
0 bond types
0 angle types
0 dihedral types

-500.000000 500.000000 xlo xhi
-500.000000 500.000000 ylo yhi
-500.000000 500.000000 zlo zhi

Masses

1 203166.000000

Atoms

1 1 -500.000000 -500.000000 -500.000000 1 1.000000 3 0.000000
2 1 -300.000000 -500.000000 -500.000000 1 1.000000 4 0.000000
3 1 -100.000000 -500.000000 -500.000000 1 1.000000 5 0.000000
4 1 100.000000 -500.000000 -500.000000 1 1.000000 6 0.000000
5 1 300.000000 -500.000000 -500.000000 1 1.000000 7 0.000000
6 1 -500.000000 -300.000000 -500.000000 1 1.000000 8 0.000000
7 1 -300.000000 -300.000000 -500.000000 1 1.000000 9 0.000000
8 1 -100.000000 -300.000000 -500.000000 1 1.000000 10 0.000000
9 1 100.000000 -300.000000 -500.000000 1 1.000000 11 0.000000
10 1 300.000000 -300.000000 -500.000000 1 1.000000 12 0.000000
11 1 -500.000000 -100.000000 -500.000000 1 1.000000 13 0.000000
12 1 -300.000000 -100.000000 -500.000000 1 1.000000 14 0.000000
13 1 -100.000000 -100.000000 -500.000000 1 1.000000 15 0.000000
14 1 100.000000 -100.000000 -500.000000 1 1.000000 16 0.000000
15 1 300.000000 -100.000000 -500.000000 1 1.000000 17 0.000000
16 1 -500.000000 100.000000 -500.000000 1 1.000000 18 0.000000
17 1 -300.000000 100.000000 -500.000000 1 1.000000 19 0.000000
18 1 -100.000000 100.000000 -500.000000 1 1.000000 20 0.000000
19 1 100.000000 100.000000 -500.000000 1 1.000000 21 0.000000
20 1 300.000000 100.000000 -500.000000 1 1.000000 22 0.000000
21 1 -500.000000 300.000000 -500.000000 1 1.000000 23 0.000000
22 1 -300.000000 300.000000 -500.000000 1 1.000000 24 0.000000
23 1 -100.000000 300.000000 -500.000000 1 1.000000 25 0.000000
24 1 100.000000 300.000000 -500.000000 1 1.000000 26 0.000000
25 1 300.000000 300.000000 -500.000000 1 1.000000 27 0.000000
26 1 -500.000000 -500.000000 -300.000000 1 1.000000 28 0.000000
27 1 -300.000000 -500.000000 -300.000000 1 1.000000 29 0.000000
28 1 -100.000000 -500.000000 -300.000000 1 1.000000 30 0.000000
29 1 100.000000 -500.000000 -300.000000 1 1.000000 31 0.000000
30 1 300.000000 -500.000000 -300.000000 1 1.000000 32 0.000000
31 1 -500.000000 -300.000000 -300.000000 1 1.000000 33 0.000000
32 1 -300.000000 -300.000000 -300.000000 1 1.000000 34 0.000000
33 1 -100.000000 -300.000000 -300.000000 1 1.000000 35 0.000000
34 1 100.000000 -300.000000 -300.000000 1 1.000000 36 0.000000
35 1 300.000000 -300.000000 -300.000000 1 1.000000 37 0.000000
36 1 -500.000000 -100.000000 -300.000000 1 1.000000 38 0.000000
37 1 -300.000000 -100.000000 -300.000000 1 1.000000 39 0.000000
38 1 -100.000000 -100.000000 -300.000000 1 1.000000 40 0.000000
39 1 100.000000 -100.000000 -300.000000 1 1.000000 41 0.000000
40 1 300.000000 -100.000000 -300.000000 1 1.000000 42 0.000000
41 1 -500.000000 100.000000 -300.000000 1 1.000000 43 0.000000
42 1 -300.000000 100.000000 -300.000000 1 1.000000 44 0.000000
43 1 -100.000000 100.000000 -300.000000 1 1.000000 45 0.000000
44 1 100.000000 100.000000 -300.000000 1 1.000000 46 0.000000
45 1 300.000000 100.000000 -300.000000 1 1.000000 47 0.000000
46 1 -500.000000 300.000000 -300.000000 1 1.000000 48 0.000000
47 1 -300.000000 300.000000 -300.000000 1 1.000000 49 0.000000
48 1 -100.000000 300.000000 -300.000000 1 1.000000 50 0.000000
49 1 100.000000 300.000000 -300.000000 1 1.000000 51 0.000000
50 1 300.000000 300.000000 -300.000000 1 1.000000 52 0.000000
51 1 -500.000000 -500.000000 -100.000000 1 1.000000 53 0.000000
52 1 -300.000000 -500.000000 -100.000000 1 1.000000 54 0.000000
53 1 -100.000000 -500.000000 -100.000000 1 1.000000 55 0.000000
54 1 100.000000 -500.000000 -100.000000 1 1.000000 56 0.000000
55 1 300.000000 -500.000000 -100.000000 1 1.000000 57 0.000000
56 1 -500.000000 -300.000000 -100.000000 1 1.000000 58 0.000000
57 1 -300.000000 -300.000000 -100.000000 1 1.000000 59 0.000000
58 1 -100.000000 -300.000000 -100.000000 1 1.000000 60 0.000000
59 1 100.000000 -300.000000 -100.000000 1 1.000000 61 0.000000
60 1 300.000000 -300.000000 -100.000000 1 1.000000 62 0.000000
61 1 -500.000000 -100.000000 -100.000000 1 1.000000 63 0.000000
62 1 -300.000000 -100.000000 -100.000000 1 1.000000 64 0.000000
63 1 -100.000000 -100.000000 -100.000000 1 1.000000 65 0.000000
64 1 100.000000 -100.000000 -100.000000 1 1.000000 66 0.000000
65 1 300.000000 -100.000000 -100.000000 1 1.000000 67 0.000000

Ellipsoids

1 55.000000 110.000000 110.000000 0.396474 0.559568 0.023228 0.727428
2 55.000000 110.000000 110.000000 0.533520 0.298892 0.293137 0.734908
3 55.000000 110.000000 110.000000 0.727690 0.566390 0.313281 0.226990
4 55.000000 110.000000 110.000000 0.578760 0.694084 0.325116 0.278539
5 55.000000 110.000000 110.000000 0.385539 0.631168 0.566498 0.363411
6 55.000000 110.000000 110.000000 0.388836 0.752402 0.530998 0.027179
7 55.000000 110.000000 110.000000 0.669447 0.108986 0.312311 0.665150
8 55.000000 110.000000 110.000000 0.117878 0.282321 0.126382 0.943624
9 55.000000 110.000000 110.000000 0.619944 0.472804 0.431987 0.453336
10 55.000000 110.000000 110.000000 0.458133 0.586117 0.379538 0.550029
11 55.000000 110.000000 110.000000 0.421232 0.574147 0.041362 0.700862
12 55.000000 110.000000 110.000000 0.473322 0.300421 0.825791 0.061506
13 55.000000 110.000000 110.000000 0.628420 0.656633 0.247547 0.335622
14 55.000000 110.000000 110.000000 0.475676 0.305103 0.803068 0.189016
15 55.000000 110.000000 110.000000 0.471861 0.314726 0.762387 0.311545
16 55.000000 110.000000 110.000000 0.206247 0.233796 0.325683 0.892598
17 55.000000 110.000000 110.000000 0.285747 0.565451 0.249792 0.732269
18 55.000000 110.000000 110.000000 0.503907 0.513101 0.349792 0.600375
19 55.000000 110.000000 110.000000 0.642124 0.540542 0.473489 0.267017
20 55.000000 110.000000 110.000000 0.528401 0.802633 0.246325 0.126081
21 55.000000 110.000000 110.000000 0.712112 0.104261 0.266434 0.641124
22 55.000000 110.000000 110.000000 0.512528 0.583497 0.248526 0.578862
23 55.000000 110.000000 110.000000 0.289962 0.417026 0.656837 0.557293
24 55.000000 110.000000 110.000000 0.607027 0.227236 0.429337 0.628929
25 55.000000 110.000000 110.000000 0.259941 0.680684 0.522257 0.443112
26 55.000000 110.000000 110.000000 0.312169 0.242294 0.505888 0.766761
27 55.000000 110.000000 110.000000 0.558652 0.368233 0.654419 0.352204
28 55.000000 110.000000 110.000000 0.471098 0.829579 0.292705 0.064727
29 55.000000 110.000000 110.000000 0.309161 0.626500 0.223800 0.679581
30 55.000000 110.000000 110.000000 0.206952 0.447452 0.776840 0.391762
31 55.000000 110.000000 110.000000 0.147980 0.485761 0.064946 0.859023
32 55.000000 110.000000 110.000000 0.388058 0.118856 0.219586 0.887167
33 55.000000 110.000000 110.000000 0.577142 0.447037 0.457161 0.508004
34 55.000000 110.000000 110.000000 0.322969 0.572242 0.454340 0.601503
35 55.000000 110.000000 110.000000 0.335074 0.645170 0.642583 0.242009
36 55.000000 110.000000 110.000000 0.874420 0.470338 0.107566 0.051001
37 55.000000 110.000000 110.000000 0.586709 0.649689 0.318307 0.363810
38 55.000000 110.000000 110.000000 0.506976 0.039421 0.757479 0.409448
39 55.000000 110.000000 110.000000 0.592267 0.018685 0.671728 0.444582
40 55.000000 110.000000 110.000000 0.061554 0.591913 0.406082 0.693503
41 55.000000 110.000000 110.000000 0.695157 0.079574 0.646560 0.303948
42 55.000000 110.000000 110.000000 0.249837 0.548724 0.457601 0.653517
43 55.000000 110.000000 110.000000 0.681866 0.522101 0.107998 0.500806
44 55.000000 110.000000 110.000000 0.645095 0.660980 0.288810 0.252085
45 55.000000 110.000000 110.000000 0.132316 0.370069 0.909895 0.132789
46 55.000000 110.000000 110.000000 0.260562 0.672233 0.399811 0.566006
47 55.000000 110.000000 110.000000 0.479688 0.690416 0.531810 0.101999
48 55.000000 110.000000 110.000000 0.199474 0.571385 0.126008 0.786035
49 55.000000 110.000000 110.000000 0.275033 0.164071 0.434786 0.841664
50 55.000000 110.000000 110.000000 0.719636 0.554413 0.119624 0.400549
51 55.000000 110.000000 110.000000 0.478223 0.857049 0.191082 0.016033
52 55.000000 110.000000 110.000000 0.797724 0.393679 0.453283 0.056458
53 55.000000 110.000000 110.000000 0.323701 0.572902 0.638719 0.398798
54 55.000000 110.000000 110.000000 0.376959 0.088300 0.830329 0.400822
55 55.000000 110.000000 110.000000 0.456906 0.726647 0.510228 0.053739
56 55.000000 110.000000 110.000000 0.236015 0.750927 0.610713 0.086223
57 55.000000 110.000000 110.000000 0.245545 0.327073 0.649073 0.641432
58 55.000000 110.000000 110.000000 0.173346 0.846942 0.475577 0.162690
59 55.000000 110.000000 110.000000 0.828409 0.480147 0.028023 0.287076
60 55.000000 110.000000 110.000000 0.316095 0.871702 0.122893 0.353718
61 55.000000 110.000000 110.000000 0.338186 0.676263 0.242953 0.607678
62 55.000000 110.000000 110.000000 0.242945 0.584498 0.625308 0.456431
63 55.000000 110.000000 110.000000 0.294934 0.098160 0.603926 0.733930
64 55.000000 110.000000 110.000000 0.639005 0.080713 0.744667 0.175010
65 55.000000 110.000000 110.000000 0.218215 0.708474 0.397964 0.540437




