ITEM: TIMESTEP
0
ITEM: NUMBER OF ATOMS
20
ITEM: BOX BOUNDS
-500.000000 500.000000
-500.000000 500.000000
-500.000000 500.000000
ITEM: ATOMS id type x y z c_q[1] c_q[2] c_q[3] c_q[4]
1 1 -500.000000 -500.000000 -500.000000 0.223779 0.648154 0.116969 0.718427
2 1 -166.666667 -500.000000 -500.000000 0.512643 0.531026 0.674413 0.019397
3 1 166.666667 -500.000000 -500.000000 0.419863 0.552265 0.564804 0.446896
4 1 -500.000000 -166.666667 -500.000000 0.853165 0.112014 0.368619 0.351685
5 1 -166.666667 -166.666667 -500.000000 0.301379 0.643310 0.656510 0.253608
6 1 166.666667 -166.666667 -500.000000 0.704696 0.098227 0.697044 0.088802
7 1 -500.000000 166.666667 -500.000000 0.362889 0.352620 0.708857 0.491419
8 1 -166.666667 166.666667 -500.000000 0.688708 0.293490 0.662647 0.021060
9 1 166.666667 166.666667 -500.000000 0.527979 0.475234 0.634430 0.304777
10 1 -500.000000 -500.000000 -166.666667 0.220260 0.221857 0.858470 0.406563
11 1 -166.666667 -500.000000 -166.666667 0.211578 0.314638 0.605774 0.699482
12 1 166.666667 -500.000000 -166.666667 0.654289 0.718114 0.208795 0.112353
13 1 -500.000000 -166.666667 -166.666667 0.928311 0.141441 0.208595 0.273351
14 1 -166.666667 -166.666667 -166.666667 0.660399 0.244391 0.503843 0.500288
15 1 166.666667 -166.666667 -166.666667 0.530504 0.333567 0.632951 0.454612
16 1 -500.000000 166.666667 -166.666667 0.481614 0.444324 0.499092 0.567038
17 1 -166.666667 166.666667 -166.666667 0.673630 0.123395 0.401961 0.607803
18 1 166.666667 166.666667 -166.666667 0.540426 0.291051 0.784767 0.085844
19 1 -500.000000 -500.000000 166.666667 0.316643 0.725543 0.609071 0.048547
20 1 -166.666667 -500.000000 166.666667 0.434808 0.396896 0.737172 0.331653
