ITEM: TIMESTEP
0
ITEM: NUMBER OF ATOMS
10
ITEM: BOX BOUNDS pp pp pp
-5.0000000000000000e+02 5.0000000000000000e+02
-5.0000000000000000e+02 5.0000000000000000e+02
-5.0000000000000000e+02 5.0000000000000000e+02
ITEM: ATOMS id type x y z c_q[1] c_q[2] c_q[3] c_q[4] 
1 1 -500 -500 -500 0.438392 0.360421 0.591273 0.57298 
2 1 -166.667 -500 -500 0.54341 0.498122 0.53524 0.412429 
3 1 166.667 -500 -500 0.521672 0.529957 0.322092 0.585884 
4 1 -500 -166.667 -500 0.164627 0.096223 0.485278 0.853314 
5 1 -166.667 -166.667 -500 0.441047 0.089507 0.134032 0.882894 
6 1 166.667 -166.667 -500 0.263537 0.395971 0.486254 0.733016 
7 1 -500 166.667 -500 0.572948 0.27876 0.616958 0.461937 
8 1 -166.667 166.667 -500 0.70561 0.086941 0.614371 0.342204 
9 1 166.667 166.667 -500 0.303228 0.071039 0.949321 0.042379 
10 1 -500 -500 -166.667 0.214056 0.346232 0.774061 0.484905 
ITEM: TIMESTEP
10000
ITEM: NUMBER OF ATOMS
10
ITEM: BOX BOUNDS pp pp pp
-5.0000000000000000e+02 5.0000000000000000e+02
-5.0000000000000000e+02 5.0000000000000000e+02
-5.0000000000000000e+02 5.0000000000000000e+02
ITEM: ATOMS id type x y z c_q[1] c_q[2] c_q[3] c_q[4] 
6 1 164.799 -168.838 -498.157 0.240173 0.425959 0.478692 0.729198 
4 1 -497.902 -164.315 -493.869 0.186891 0.131306 0.500051 0.835332 
5 1 -165.937 -165.511 -500.154 0.432693 0.0870072 0.147459 0.885134 
10 1 -499.939 497.631 -167.376 0.183666 0.40268 0.759114 0.477348 
1 1 -497.008 499.558 489.786 0.432346 0.332727 0.612963 0.571529 
7 1 -493.619 164.505 496.545 0.59596 0.286261 0.597922 0.453183 
9 1 164.092 165.476 499.399 0.300199 0.107988 0.94393 0.0849403 
8 1 -167.574 172.325 498.742 0.734804 0.105621 0.572997 0.347249 
2 1 -164.829 499.365 495.965 0.521165 0.525381 0.563279 0.367531 
3 1 167.194 498.524 499.124 0.51046 0.533444 0.346287 0.578752 
ITEM: TIMESTEP
20000
ITEM: NUMBER OF ATOMS
10
ITEM: BOX BOUNDS pp pp pp
-5.0000000000000000e+02 5.0000000000000000e+02
-5.0000000000000000e+02 5.0000000000000000e+02
-5.0000000000000000e+02 5.0000000000000000e+02
ITEM: ATOMS id type x y z c_q[1] c_q[2] c_q[3] c_q[4] 
4 1 -497.65 -166.601 -493.13 0.16973 0.0509076 0.458593 0.8708 
6 1 168.834 -165.592 -497.646 0.27757 0.459788 0.458368 0.70813 
10 1 -497.431 499.107 -163.579 0.212673 0.379761 0.763594 0.476944 
3 1 169.345 -497.538 493.911 0.529194 0.54507 0.372579 0.532952 
1 1 -499.207 -499.511 489.159 0.428893 0.283592 0.640415 0.570522 
5 1 -163.085 -167.748 498.586 0.417866 0.0659448 0.178594 0.888337 
7 1 -494.654 160.859 493.324 0.619232 0.224588 0.600023 0.453966 
9 1 159.971 162.193 495.401 0.313942 0.107521 0.939997 0.0792733 
8 1 -164.734 175.185 495.145 0.704338 0.132599 0.57747 0.390965 
2 1 -164.243 498.989 493.443 0.53978 0.518925 0.549007 0.37141 
ITEM: TIMESTEP
30000
ITEM: NUMBER OF ATOMS
10
ITEM: BOX BOUNDS pp pp pp
-5.0000000000000000e+02 5.0000000000000000e+02
-5.0000000000000000e+02 5.0000000000000000e+02
-5.0000000000000000e+02 5.0000000000000000e+02
ITEM: ATOMS id type x y z c_q[1] c_q[2] c_q[3] c_q[4] 
4 1 -497.234 -166.792 -495.712 0.156267 -0.00572819 0.447203 0.880657 
5 1 -159.729 -166.569 499.812 0.416233 0.0420184 0.172142 0.891825 
10 1 497.718 496.378 -162.273 0.175993 0.401763 0.769717 0.463842 
3 1 166.998 -489.974 494.906 0.514563 0.576587 0.323695 0.545889 
6 1 171.95 -162.961 499.617 0.256927 0.483792 0.471666 0.690988 
7 1 -493.575 164.119 485.999 0.568958 0.209615 0.616699 0.502026 
9 1 157.761 165.217 495.188 0.268496 0.0963689 0.95754 0.0417142 
8 1 -166.044 176.033 499.727 0.659579 0.0930712 0.603093 0.43883 
2 1 -167.127 499.431 491.298 0.51043 0.46916 0.576635 0.432252 
1 1 498.196 498.968 489.502 0.431998 0.255573 0.624183 0.598711 
ITEM: TIMESTEP
40000
ITEM: NUMBER OF ATOMS
10
ITEM: BOX BOUNDS pp pp pp
-5.0000000000000000e+02 5.0000000000000000e+02
-5.0000000000000000e+02 5.0000000000000000e+02
-5.0000000000000000e+02 5.0000000000000000e+02
ITEM: ATOMS id type x y z c_q[1] c_q[2] c_q[3] c_q[4] 
4 1 -495.866 -168.854 -492.727 0.160359 -0.0681895 0.479855 0.859869 
5 1 -162.19 -166.408 -497.137 0.405448 0.0709136 0.108196 0.904918 
6 1 167.841 -166.392 -498.932 0.290977 0.472049 0.480798 0.679217 
10 1 -499.784 493.652 -161.508 0.157058 0.385995 0.781505 0.464317 
3 1 170.786 -486.023 490.472 0.51721 0.572181 0.313892 0.553691 
1 1 -499.759 -498.149 484.649 0.451344 0.23696 0.616803 0.599744 
7 1 -491.698 162.452 493.562 0.511513 0.230766 0.65314 0.508438 
8 1 -160.965 174.079 497.794 0.656906 0.0818779 0.596023 0.454453 
9 1 159.558 168.518 498.161 0.280797 0.0922435 0.953638 0.0567284 
2 1 -170.562 498.757 487.09 0.495369 0.493518 0.573542 0.426731 
ITEM: TIMESTEP
50000
ITEM: NUMBER OF ATOMS
10
ITEM: BOX BOUNDS pp pp pp
-5.0000000000000000e+02 5.0000000000000000e+02
-5.0000000000000000e+02 5.0000000000000000e+02
-5.0000000000000000e+02 5.0000000000000000e+02
ITEM: ATOMS id type x y z c_q[1] c_q[2] c_q[3] c_q[4] 
4 1 -494.857 -168.055 -493.29 0.179067 -0.0607922 0.479983 0.856654 
10 1 497.769 492.563 -161.562 0.141074 0.391609 0.787189 0.455054 
2 1 -170.9 -498.919 488.102 0.520787 0.461279 0.581648 0.42153 
3 1 171.531 -492.823 488.929 0.54828 0.564233 0.277374 0.551447 
6 1 166.439 -167.52 494.362 0.314847 0.477189 0.453535 0.683717 
5 1 -159.08 -166.714 -500.022 0.424801 0.0578284 0.136769 0.893025 
7 1 -491.966 161.357 491.317 0.518523 0.227758 0.631975 0.529024 
9 1 156.533 164.204 499.504 0.280526 0.0849804 0.951396 0.0944903 
8 1 -161.812 173.523 491.31 0.67583 0.08588 0.595382 0.425909 
1 1 -495.876 498.061 483.085 0.415117 0.232173 0.607181 0.636478 
ITEM: TIMESTEP
60000
ITEM: NUMBER OF ATOMS
10
ITEM: BOX BOUNDS pp pp pp
-5.0000000000000000e+02 5.0000000000000000e+02
-5.0000000000000000e+02 5.0000000000000000e+02
-5.0000000000000000e+02 5.0000000000000000e+02
ITEM: ATOMS id type x y z c_q[1] c_q[2] c_q[3] c_q[4] 
4 1 -493.954 -170.716 -492.465 0.223029 -0.0788769 0.482195 0.843519 
5 1 -157.593 -166.879 -497.328 0.429015 0.0307199 0.0860336 0.898666 
9 1 152.884 164.821 -495.428 0.294752 0.0822742 0.946212 0.105047 
10 1 497.602 493.04 -163.626 0.129568 0.385904 0.80059 0.43971 
2 1 -173.134 -497.648 482.905 0.551436 0.469907 0.550309 0.41505 
3 1 169.372 -492.388 484.86 0.528342 0.559182 0.295831 0.566263 
6 1 168.398 -172.43 497.793 0.282629 0.502028 0.423169 0.699297 
7 1 -493.022 155.892 488.245 0.483273 0.230031 0.658978 0.528471 
8 1 -161.722 174.413 489.666 0.677697 0.0752106 0.606533 0.408887 
1 1 -499.521 496.035 490.017 0.42271 0.285626 0.606018 0.610308 
ITEM: TIMESTEP
70000
ITEM: NUMBER OF ATOMS
10
ITEM: BOX BOUNDS pp pp pp
-5.0000000000000000e+02 5.0000000000000000e+02
-5.0000000000000000e+02 5.0000000000000000e+02
-5.0000000000000000e+02 5.0000000000000000e+02
ITEM: ATOMS id type x y z c_q[1] c_q[2] c_q[3] c_q[4] 
4 1 -496.814 -170.054 -495.76 0.174665 -0.143141 0.503901 0.833718 
5 1 -158.069 -169.142 -492.746 0.416404 0.0268037 0.141413 0.897715 
9 1 151.374 168.076 -496.797 0.272561 0.103353 0.948599 0.123243 
10 1 495.503 490.738 -163.226 0.0987725 0.381635 0.839613 0.373696 
2 1 -171.565 -496.897 488.673 0.536674 0.493353 0.546187 0.412629 
3 1 166.772 -491.699 481.686 0.538801 0.582176 0.301679 0.528918 
6 1 168.655 -175.597 498.092 0.282338 0.465626 0.413074 0.729964 
7 1 -494.868 152.386 494.615 0.475768 0.218952 0.678405 0.515239 
8 1 -161.082 176.378 494.078 0.67473 0.105278 0.601135 0.415081 
1 1 -494.233 496.05 493.924 0.382405 0.322244 0.59026 0.633655 
ITEM: TIMESTEP
80000
ITEM: NUMBER OF ATOMS
10
ITEM: BOX BOUNDS pp pp pp
-5.0000000000000000e+02 5.0000000000000000e+02
-5.0000000000000000e+02 5.0000000000000000e+02
-5.0000000000000000e+02 5.0000000000000000e+02
ITEM: ATOMS id type x y z c_q[1] c_q[2] c_q[3] c_q[4] 
5 1 -154.176 -169.475 -499.315 0.42624 0.00648348 0.131246 0.895015 
4 1 498.634 -169.518 -496.202 0.162217 -0.157793 0.494182 0.839387 
9 1 145.234 167.63 -499.256 0.263328 0.144895 0.948144 0.103381 
10 1 495.501 492.048 -167.758 0.0978043 0.396686 0.809842 0.420987 
2 1 -167.363 -500.139 483.355 0.563072 0.46283 0.545177 0.41415 
3 1 166.957 -493.941 479.129 0.555103 0.594709 0.27955 0.509935 
6 1 168.206 -176.118 495.017 0.244577 0.485318 0.371578 0.752714 
7 1 -497.307 152.022 485.099 0.442795 0.231819 0.70464 0.503661 
8 1 -163.291 174.722 491.389 0.677378 0.0991322 0.59459 0.421657 
1 1 -490.397 490.913 491.567 0.328483 0.325173 0.608058 0.645466 
ITEM: TIMESTEP
90000
ITEM: NUMBER OF ATOMS
10
ITEM: BOX BOUNDS pp pp pp
-5.0000000000000000e+02 5.0000000000000000e+02
-5.0000000000000000e+02 5.0000000000000000e+02
-5.0000000000000000e+02 5.0000000000000000e+02
ITEM: ATOMS id type x y z c_q[1] c_q[2] c_q[3] c_q[4] 
4 1 496.297 -173.517 -497.762 0.19718 -0.157062 0.474445 0.843418 
10 1 497.973 490.132 -165.544 0.112008 0.40008 0.807619 0.4185 
2 1 -169.253 -498.849 490.355 0.604592 0.456671 0.479752 0.442445 
3 1 168.355 -491.805 479.479 0.555474 0.631061 0.270651 0.468998 
5 1 -158.204 -168.794 498.774 0.409368 -0.0285945 0.107179 0.905601 
6 1 157.73 -173.932 493.414 0.269481 0.529554 0.39371 0.701388 
7 1 498.762 156.218 486.233 0.503274 0.202078 0.68932 0.480331 
9 1 145.657 164.517 495.343 0.266293 0.155101 0.944492 0.113874 
8 1 -167.915 171.061 490.873 0.682637 0.0781657 0.587017 0.428145 
1 1 -498.891 488.298 495.436 0.345106 0.329161 0.61416 0.628779 
ITEM: TIMESTEP
100000
ITEM: NUMBER OF ATOMS
10
ITEM: BOX BOUNDS pp pp pp
-5.0000000000000000e+02 5.0000000000000000e+02
-5.0000000000000000e+02 5.0000000000000000e+02
-5.0000000000000000e+02 5.0000000000000000e+02
ITEM: ATOMS id type x y z c_q[1] c_q[2] c_q[3] c_q[4] 
4 1 -498.458 -180.733 -496.05 0.139845 -0.205004 0.466404 0.849049 
10 1 497.637 487.276 -164.057 0.0681834 0.437745 0.816314 0.370623 
3 1 165.702 -486.439 479.261 0.531133 0.632327 0.317972 0.465784 
5 1 -156.119 -167.288 496.962 0.414192 -0.026153 0.114471 0.902584 
6 1 153.861 -171.714 494.605 0.263811 0.482268 0.408918 0.728428 
7 1 -497.016 158.453 488.157 0.51305 0.218105 0.687119 0.465916 
8 1 -167.867 165.801 489.194 0.665601 0.0733614 0.615006 0.416366 
9 1 153.237 160.939 493.16 0.251884 0.168432 0.942194 0.143024 
2 1 -173.926 496.632 491.092 0.609287 0.448907 0.536217 0.373795 
1 1 499.016 486.49 494.62 0.302851 0.307246 0.627541 0.64813 
ITEM: TIMESTEP
110000
ITEM: NUMBER OF ATOMS
10
ITEM: BOX BOUNDS pp pp pp
-5.0000000000000000e+02 5.0000000000000000e+02
-5.0000000000000000e+02 5.0000000000000000e+02
-5.0000000000000000e+02 5.0000000000000000e+02
ITEM: ATOMS id type x y z c_q[1] c_q[2] c_q[3] c_q[4] 
4 1 -495.113 -181.39 -497.615 0.0976354 -0.160118 0.479402 0.857324 
10 1 499.131 488.627 -167.521 0.0860722 0.42345 0.818431 0.378752 
3 1 166.465 -487.488 479.072 0.540204 0.613828 0.290019 0.497276 
5 1 -155.432 -167.935 495.689 0.358689 0.00783138 0.140799 0.922744 
6 1 156.039 -172.775 492.164 0.222071 0.416324 0.408593 0.781288 
7 1 -494.624 157.887 486.926 0.52706 0.22482 0.638707 0.513535 
8 1 -166.983 161.843 489.633 0.631885 0.0530295 0.62176 0.459699 
9 1 157.679 160.745 498.568 0.241773 0.144864 0.952843 0.112472 
1 1 -499.592 482.82 498.557 0.276774 0.315106 0.64752 0.636256 
2 1 -171.199 498.224 495.492 0.588784 0.479203 0.529472 0.378625 
ITEM: TIMESTEP
120000
ITEM: NUMBER OF ATOMS
10
ITEM: BOX BOUNDS pp pp pp
-5.0000000000000000e+02 5.0000000000000000e+02
-5.0000000000000000e+02 5.0000000000000000e+02
-5.0000000000000000e+02 5.0000000000000000e+02
ITEM: ATOMS id type x y z c_q[1] c_q[2] c_q[3] c_q[4] 
4 1 -492.508 -178.403 -498.229 0.0727502 -0.117662 0.495163 0.857716 
10 1 -499.219 485.444 -168.584 0.0497893 0.384367 0.848588 0.360113 
3 1 167.437 -486.814 486.273 0.569963 0.611796 0.279358 0.472024 
6 1 160.982 -167.793 492.375 0.237835 0.406227 0.412288 0.780021 
5 1 -159.808 -162.843 498.811 0.370485 0.024165 0.179147 0.911078 
7 1 -495.573 167.148 485.886 0.544756 0.234298 0.611203 0.524191 
8 1 -170.245 162.409 489.375 0.656286 0.0431651 0.559196 0.504704 
9 1 152.69 163.622 494.25 0.193599 0.167169 0.964123 0.0709932 
1 1 -494.61 479.788 497.798 0.267832 0.285483 0.663566 0.637531 
2 1 -174.591 499.905 490.399 0.587175 0.492793 0.517901 0.379682 
ITEM: TIMESTEP
130000
ITEM: NUMBER OF ATOMS
10
ITEM: BOX BOUNDS pp pp pp
-5.0000000000000000e+02 5.0000000000000000e+02
-5.0000000000000000e+02 5.0000000000000000e+02
-5.0000000000000000e+02 5.0000000000000000e+02
ITEM: ATOMS id type x y z c_q[1] c_q[2] c_q[3] c_q[4] 
4 1 -489.781 -177.618 -498.597 0.111093 -0.123187 0.470523 0.866655 
10 1 493.731 483.441 -172.74 0.0457127 0.383777 0.838784 0.383494 
2 1 -170.325 -499.551 495.356 0.544571 0.487596 0.534601 0.424139 
3 1 165.616 -489.108 482.213 0.602513 0.559938 0.299089 0.483728 
6 1 166.618 -172.666 487.045 0.302648 0.364766 0.399621 0.784635 
5 1 -156.968 -164.48 488.952 0.399716 0.0267585 0.164292 0.901399 
7 1 -493.949 164.789 484.487 0.567169 0.258069 0.604847 0.495863 
8 1 -169.689 164.365 486.107 0.630231 0.0418688 0.531482 0.564432 
9 1 149.439 161.349 489.245 0.153724 0.201678 0.967025 0.0236305 
1 1 -493.185 478.231 497.805 0.246373 0.231065 0.695254 0.634453 
ITEM: TIMESTEP
140000
ITEM: NUMBER OF ATOMS
10
ITEM: BOX BOUNDS pp pp pp
-5.0000000000000000e+02 5.0000000000000000e+02
-5.0000000000000000e+02 5.0000000000000000e+02
-5.0000000000000000e+02 5.0000000000000000e+02
ITEM: ATOMS id type x y z c_q[1] c_q[2] c_q[3] c_q[4] 
10 1 493.562 481.231 -175.071 0.0583682 0.376741 0.838045 0.390308 
3 1 166.267 -488.401 479.433 0.586092 0.576989 0.292486 0.487886 
4 1 -492.315 -177.755 498.889 0.109201 -0.147839 0.467345 0.864758 
6 1 173.142 -176.824 486.498 0.314656 0.393941 0.419521 0.754854 
5 1 -159.495 -164.958 490.047 0.42885 0.0422756 0.16768 0.88667 
9 1 152.974 158.714 486.16 0.201128 0.23434 0.949682 0.0523054 
7 1 -499.298 167.718 487.583 0.530582 0.268445 0.621987 0.509461 
8 1 -169.851 168.917 485.28 0.648662 0.0267363 0.524561 0.55078 
1 1 -490.113 475.714 498.705 0.250023 0.279597 0.687673 0.621627 
2 1 -171.827 -499.786 499.04 0.57067 0.446307 0.550182 0.415265 
ITEM: TIMESTEP
150000
ITEM: NUMBER OF ATOMS
10
ITEM: BOX BOUNDS pp pp pp
-5.0000000000000000e+02 5.0000000000000000e+02
-5.0000000000000000e+02 5.0000000000000000e+02
-5.0000000000000000e+02 5.0000000000000000e+02
ITEM: ATOMS id type x y z c_q[1] c_q[2] c_q[3] c_q[4] 
4 1 -490.101 -178.584 -499.041 0.0928382 -0.153842 0.456314 0.871488 
2 1 -170.069 499.7 -499.288 0.596616 0.436058 0.541181 0.40128 
10 1 493.031 476.545 -176.845 0.0399054 0.384928 0.841643 0.376663 
3 1 166.847 -489.302 481.98 0.596882 0.569699 0.296825 0.480697 
6 1 169.262 -178.473 483.703 0.299433 0.402029 0.449001 0.739669 
5 1 -154.771 -165.5 488.05 0.371193 0.0413769 0.194885 0.906931 
7 1 -496.589 165.392 486.26 0.509151 0.304596 0.621726 0.511315 
9 1 153.292 156.93 487.556 0.249213 0.195106 0.948104 0.0304048 
8 1 -169.478 168.838 481.799 0.659131 0.0165188 0.532892 0.530376 
1 1 -495.598 473.556 -499.795 0.234862 0.262239 0.692444 0.629755 
ITEM: TIMESTEP
160000
ITEM: NUMBER OF ATOMS
10
ITEM: BOX BOUNDS pp pp pp
-5.0000000000000000e+02 5.0000000000000000e+02
-5.0000000000000000e+02 5.0000000000000000e+02
-5.0000000000000000e+02 5.0000000000000000e+02
ITEM: ATOMS id type x y z c_q[1] c_q[2] c_q[3] c_q[4] 
4 1 -489.768 -181.669 -495.104 0.119184 -0.168649 0.458164 0.864545 
2 1 -170.78 498.443 -497.992 0.588476 0.472421 0.519568 0.400704 
10 1 494.878 479.414 -174.625 0.0501136 0.381927 0.82733 0.408835 
3 1 165.198 -489.177 478.581 0.593007 0.589295 0.296465 0.461717 
5 1 -150.41 -168.508 489.58 0.392414 0.0331612 0.242645 0.886586 
6 1 169.632 -174.517 484.846 0.29575 0.42089 0.458047 0.724967 
9 1 150.647 160.394 489.461 0.252155 0.223204 0.941285 0.0241033 
7 1 -499.452 168.058 484.818 0.475946 0.281416 0.644794 0.52775 
8 1 -167.561 168.508 481.316 0.614088 0.0414623 0.56877 0.545599 
1 1 -493.133 472.8 499.834 0.215274 0.21805 0.705754 0.638766 
ITEM: TIMESTEP
170000
ITEM: NUMBER OF ATOMS
10
ITEM: BOX BOUNDS pp pp pp
-5.0000000000000000e+02 5.0000000000000000e+02
-5.0000000000000000e+02 5.0000000000000000e+02
-5.0000000000000000e+02 5.0000000000000000e+02
ITEM: ATOMS id type x y z c_q[1] c_q[2] c_q[3] c_q[4] 
4 1 -495.585 -182.076 -497.632 0.120864 -0.21032 0.476512 0.845041 
2 1 -173.433 -499.718 -497.756 0.559857 0.469485 0.535181 0.423941 
10 1 496.881 482.482 -171.72 0.0465983 0.423895 0.791279 0.438201 
3 1 160.234 -497.717 473.798 0.594186 0.554819 0.257934 0.5221 
6 1 164.826 -169.984 487.01 0.270433 0.399783 0.463377 0.743183 
5 1 -149.852 -165.649 492.113 0.391227 0.0572062 0.245326 0.885146 
9 1 150.941 159.073 487.79 0.24979 0.18152 0.951134 0.00040748 
8 1 -169.343 170.686 478.629 0.583161 0.0549076 0.605916 0.538307 
7 1 498.571 173.022 485.106 0.485223 0.29879 0.631076 0.526333 
1 1 -491.144 472.314 497.89 0.17786 0.19542 0.716138 0.646005 
ITEM: TIMESTEP
180000
ITEM: NUMBER OF ATOMS
10
ITEM: BOX BOUNDS pp pp pp
-5.0000000000000000e+02 5.0000000000000000e+02
-5.0000000000000000e+02 5.0000000000000000e+02
-5.0000000000000000e+02 5.0000000000000000e+02
ITEM: ATOMS id type x y z c_q[1] c_q[2] c_q[3] c_q[4] 
1 1 -489.613 472.452 -499.29 0.159797 0.155196 0.700082 0.678427 
2 1 -173.263 497.627 -499.832 0.585023 0.492153 0.517743 0.384027 
10 1 494.626 479.828 -169.683 0.06276 0.399071 0.803598 0.437073 
3 1 158.157 -496.755 475.207 0.637746 0.566945 0.248324 0.458464 
4 1 -493.43 -180.304 496.859 0.105835 -0.182657 0.484523 0.848925 
6 1 168.922 -169.515 483.197 0.21896 0.413639 0.476369 0.744333 
5 1 -153.991 -165.733 488.503 0.443185 0.105799 0.235288 0.858507 
9 1 152.532 156.783 488.844 0.291597 0.188588 0.937504 0.0221774 
7 1 -498.856 173.514 485.251 0.455442 0.269761 0.667604 0.523552 
8 1 -168.726 170.121 479.538 0.541935 0.0768224 0.618652 0.563626 
ITEM: TIMESTEP
190000
ITEM: NUMBER OF ATOMS
10
ITEM: BOX BOUNDS pp pp pp
-5.0000000000000000e+02 5.0000000000000000e+02
-5.0000000000000000e+02 5.0000000000000000e+02
-5.0000000000000000e+02 5.0000000000000000e+02
ITEM: ATOMS id type x y z c_q[1] c_q[2] c_q[3] c_q[4] 
2 1 -174.063 -498.811 -498.463 0.606578 0.496369 0.480592 0.393334 
1 1 -494.2 475.067 -498.521 0.124023 0.185189 0.706169 0.672048 
10 1 492.899 479.961 -170.802 0.0698252 0.401658 0.803724 0.433385 
3 1 157.253 -498.937 474.032 0.666219 0.563007 0.239411 0.426448 
4 1 -494.451 -177.565 499.059 0.0753068 -0.188082 0.514148 0.83343 
6 1 167.892 -169.374 478.496 0.230426 0.39062 0.43487 0.777951 
5 1 -152.089 -163.734 489.371 0.442114 0.0889415 0.212777 0.866805 
9 1 145.804 157.759 486.77 0.33091 0.225561 0.91577 0.0314076 
7 1 -497.307 175.063 485.528 0.428428 0.22356 0.697102 0.529641 
8 1 -167.529 172.65 481.13 0.537171 0.0301031 0.595979 0.596112 
ITEM: TIMESTEP
200000
ITEM: NUMBER OF ATOMS
10
ITEM: BOX BOUNDS pp pp pp
-5.0000000000000000e+02 5.0000000000000000e+02
-5.0000000000000000e+02 5.0000000000000000e+02
-5.0000000000000000e+02 5.0000000000000000e+02
ITEM: ATOMS id type x y z c_q[1] c_q[2] c_q[3] c_q[4] 
2 1 -175.15 -499.015 -494.875 0.587078 0.501144 0.47446 0.42318 
1 1 -489.814 479.018 -496.143 0.0774961 0.196479 0.710732 0.671007 
10 1 493.718 473.84 -169.386 0.0772706 0.396818 0.788447 0.46359 
3 1 159.581 -496.6 471.848 0.669915 0.576844 0.259842 0.388517 
4 1 -498.013 -176.408 496.161 0.0696595 -0.207208 0.54526 0.809262 
5 1 -152.642 -160.98 492.16 0.443322 0.0700895 0.219653 0.866202 
6 1 165.435 -166.54 483.117 0.258238 0.373055 0.410142 0.791156 
9 1 146.957 157.006 484.23 0.393642 0.194147 0.897232 0.0482475 
7 1 -495.169 175.804 488.456 0.386541 0.223629 0.705408 0.550432 
8 1 -167.93 170.342 477.89 0.531719 0.00320144 0.603493 0.594189 
ITEM: TIMESTEP
210000
ITEM: NUMBER OF ATOMS
10
ITEM: BOX BOUNDS pp pp pp
-5.0000000000000000e+02 5.0000000000000000e+02
-5.0000000000000000e+02 5.0000000000000000e+02
-5.0000000000000000e+02 5.0000000000000000e+02
ITEM: ATOMS id type x y z c_q[1] c_q[2] c_q[3] c_q[4] 
2 1 -171.845 -496.185 -497.316 0.59164 0.473784 0.481787 0.439741 
1 1 -487.643 481.267 -493.235 0.127332 0.181765 0.719026 0.658596 
10 1 493.032 471.326 -167.621 0.0466714 0.345318 0.803395 0.482838 
3 1 159.984 -499.006 464.64 0.674682 0.585541 0.224026 0.389563 
4 1 498.952 -177.3 497.011 0.127927 -0.22277 0.537548 0.80315 
5 1 -153.736 -160.275 492.738 0.466346 0.068626 0.216407 0.854973 
6 1 168.006 -166.74 487.181 0.262506 0.390714 0.410617 0.780915 
9 1 147.247 156.835 481.904 0.397641 0.208039 0.890144 0.0790238 
7 1 -493.714 178.928 492.029 0.372989 0.213984 0.720391 0.544175 
8 1 -175.263 172.794 475.927 0.547808 0.00177439 0.627236 0.553605 
ITEM: TIMESTEP
220000
ITEM: NUMBER OF ATOMS
10
ITEM: BOX BOUNDS pp pp pp
-5.0000000000000000e+02 5.0000000000000000e+02
-5.0000000000000000e+02 5.0000000000000000e+02
-5.0000000000000000e+02 5.0000000000000000e+02
ITEM: ATOMS id type x y z c_q[1] c_q[2] c_q[3] c_q[4] 
1 1 -488.839 481.004 -488.947 0.141919 0.193162 0.694243 0.678656 
10 1 494.195 473.192 -169.482 0.0773732 0.340068 0.806358 0.477654 
2 1 -173.066 -493.988 497.509 0.588302 0.477724 0.496429 0.423366 
3 1 158.158 -498.552 465.02 0.681262 0.610716 0.181708 0.360404 
4 1 499.316 -176.205 494.511 0.142008 -0.199137 0.545626 0.801542 
5 1 -158.126 -155.306 488.766 0.473274 0.0873865 0.193516 0.854943 
6 1 170.15 -163.898 484.834 0.267744 0.352091 0.354103 0.823988 
9 1 145.745 159.492 482.403 0.370378 0.222968 0.897036 0.0918251 
7 1 -494.713 178.014 490.914 0.405414 0.225776 0.688734 0.557055 
8 1 -175.811 170.101 481.921 0.530459 -0.00151067 0.635781 0.560709 
ITEM: TIMESTEP
230000
ITEM: NUMBER OF ATOMS
10
ITEM: BOX BOUNDS pp pp pp
-5.0000000000000000e+02 5.0000000000000000e+02
-5.0000000000000000e+02 5.0000000000000000e+02
-5.0000000000000000e+02 5.0000000000000000e+02
ITEM: ATOMS id type x y z c_q[1] c_q[2] c_q[3] c_q[4] 
2 1 -176.282 499.536 -498.417 0.60685 0.466055 0.491205 0.416224 
1 1 -487.198 478.551 -489.712 0.183524 0.238325 0.673569 0.675148 
10 1 499.282 471.936 -171.465 0.0743033 0.362162 0.789959 0.489165 
3 1 156.204 -497.382 470.482 0.664197 0.594844 0.154269 0.42568 
4 1 497.945 -176.49 494.098 0.137949 -0.212184 0.573833 0.778886 
5 1 -156.836 -156.332 493.004 0.510984 0.0666809 0.195407 0.834425 
6 1 171.686 -164.783 485.051 0.261873 0.350939 0.325491 0.838046 
9 1 143.101 155.317 483.194 0.358883 0.204146 0.89988 0.140514 
7 1 -491.105 178.206 491.608 0.40617 0.22804 0.669866 0.57819 
8 1 -178.415 170.502 483.002 0.525318 -0.0172066 0.632935 0.568452 
ITEM: TIMESTEP
240000
ITEM: NUMBER OF ATOMS
10
ITEM: BOX BOUNDS pp pp pp
-5.0000000000000000e+02 5.0000000000000000e+02
-5.0000000000000000e+02 5.0000000000000000e+02
-5.0000000000000000e+02 5.0000000000000000e+02
ITEM: ATOMS id type x y z c_q[1] c_q[2] c_q[3] c_q[4] 
2 1 -174.628 -497.894 -496.906 0.596338 0.43824 0.515351 0.432135 
1 1 -490.026 474.974 -496.341 0.157231 0.271923 0.659138 0.683281 
10 1 -498.342 476.283 -170.126 0.074226 0.36457 0.783325 0.497976 
4 1 498.953 -176.436 491.642 0.16999 -0.183465 0.57955 0.775607 
5 1 -156.027 -155.235 497.123 0.525524 0.0701091 0.209046 0.821711 
6 1 169.151 -164.844 486.023 0.319702 0.34853 0.303914 0.827015 
9 1 142.712 154.198 482.231 0.342186 0.233893 0.900502 0.131526 
7 1 -491.671 181.429 490.205 0.428365 0.205955 0.675301 0.563963 
8 1 -179.572 176.326 479.038 0.570872 0.00276735 0.623361 0.53434 
3 1 160.379 499.517 476.215 0.627974 0.652486 0.163571 0.391351 
ITEM: TIMESTEP
250000
ITEM: NUMBER OF ATOMS
10
ITEM: BOX BOUNDS pp pp pp
-5.0000000000000000e+02 5.0000000000000000e+02
-5.0000000000000000e+02 5.0000000000000000e+02
-5.0000000000000000e+02 5.0000000000000000e+02
ITEM: ATOMS id type x y z c_q[1] c_q[2] c_q[3] c_q[4] 
2 1 -172.633 -497.662 -494.208 0.588936 0.442077 0.520852 0.431781 
1 1 -494.34 474.476 -499.148 0.144351 0.256919 0.673079 0.678322 
10 1 498.917 473.137 -173.531 0.0794794 0.394761 0.771704 0.49226 
4 1 496.438 -176.428 493.28 0.126018 -0.177997 0.60591 0.765055 
5 1 -156.407 -149.081 496.228 0.546813 0.101692 0.208593 0.804452 
6 1 167.491 -164.926 486.205 0.320313 0.296292 0.274541 0.856877 
9 1 139.776 149.455 481.764 0.324632 0.22008 0.907704 0.149174 
7 1 -492.84 185.636 488.111 0.452641 0.205494 0.663857 0.558733 
8 1 -178.404 180.305 478.267 0.586181 -0.0434238 0.619421 0.520407 
3 1 159.041 493.313 478.29 0.634596 0.631979 0.160651 0.414826 
ITEM: TIMESTEP
260000
ITEM: NUMBER OF ATOMS
10
ITEM: BOX BOUNDS pp pp pp
-5.0000000000000000e+02 5.0000000000000000e+02
-5.0000000000000000e+02 5.0000000000000000e+02
-5.0000000000000000e+02 5.0000000000000000e+02
ITEM: ATOMS id type x y z c_q[1] c_q[2] c_q[3] c_q[4] 
2 1 -170.298 -492.063 -491.986 0.541626 0.394774 0.571306 0.473713 
10 1 -499.355 474.191 -178.581 0.150724 0.392762 0.754251 0.504109 
4 1 491.53 -181.372 494.567 0.166552 -0.153479 0.626587 0.745717 
5 1 -157.29 -146.391 496.255 0.528125 0.0994064 0.20045 0.819159 
6 1 163.889 -163.34 481.2 0.31325 0.368425 0.278689 0.829741 
9 1 142.209 150.837 488.597 0.329523 0.229466 0.911248 0.0915808 
7 1 -495.146 189.1 490.636 0.42301 0.220822 0.647464 0.594214 
8 1 -174.396 179.172 478.983 0.556472 -0.0682699 0.637735 0.528179 
1 1 -496.07 473.301 499.246 0.142947 0.276487 0.67325 0.670713 
3 1 156.748 497.197 485.353 0.659847 0.597724 0.208406 0.404839 
ITEM: TIMESTEP
270000
ITEM: NUMBER OF ATOMS
10
ITEM: BOX BOUNDS pp pp pp
-5.0000000000000000e+02 5.0000000000000000e+02
-5.0000000000000000e+02 5.0000000000000000e+02
-5.0000000000000000e+02 5.0000000000000000e+02
ITEM: ATOMS id type x y z c_q[1] c_q[2] c_q[3] c_q[4] 
2 1 -172.678 -494.446 -496.475 0.529974 0.400037 0.588431 0.461354 
1 1 -499.104 479.087 -498.127 0.140666 0.337303 0.65574 0.660639 
10 1 499.044 476.96 -181.012 0.152937 0.369842 0.755684 0.518428 
4 1 492.243 -182.128 495.958 0.176353 -0.128155 0.593864 0.774469 
5 1 -157.814 -149.063 496.218 0.505354 0.0805245 0.243816 0.823824 
6 1 165.006 -161.216 485.84 0.340703 0.34111 0.295323 0.824833 
9 1 141.661 152.82 487.089 0.3809 0.251182 0.886391 0.0783162 
7 1 -494.1 186.302 489.135 0.472299 0.283806 0.626356 0.551422 
8 1 -171.775 177.554 479.345 0.565209 -0.0659661 0.64073 0.515415 
3 1 154.171 496.173 483.983 0.615491 0.590422 0.230973 0.468214 
ITEM: TIMESTEP
280000
ITEM: NUMBER OF ATOMS
10
ITEM: BOX BOUNDS pp pp pp
-5.0000000000000000e+02 5.0000000000000000e+02
-5.0000000000000000e+02 5.0000000000000000e+02
-5.0000000000000000e+02 5.0000000000000000e+02
ITEM: ATOMS id type x y z c_q[1] c_q[2] c_q[3] c_q[4] 
2 1 -174.687 -496.684 -497.134 0.47033 0.397568 0.629561 0.47369 
1 1 -497.076 482.142 -493.323 0.111416 0.30453 0.66946 0.668335 
10 1 -496.666 479.787 -182.045 0.149054 0.39263 0.748771 0.512803 
4 1 498.295 -182.626 497.583 0.217256 -0.169533 0.543474 0.792903 
5 1 -158.903 -148.397 493.929 0.563256 0.117621 0.25656 0.776586 
6 1 162.706 -160.251 485.395 0.326626 0.359068 0.285229 0.826456 
9 1 141.713 154.072 484.957 0.370644 0.275947 0.885935 0.0399411 
7 1 -493.485 185.831 490.474 0.48227 0.310491 0.612595 0.543819 
8 1 -168.616 181.86 480.289 0.576581 -0.0593707 0.587071 0.565134 
3 1 156.469 492.815 484.811 0.576652 0.621772 0.269446 0.456367 
ITEM: TIMESTEP
290000
ITEM: NUMBER OF ATOMS
10
ITEM: BOX BOUNDS pp pp pp
-5.0000000000000000e+02 5.0000000000000000e+02
-5.0000000000000000e+02 5.0000000000000000e+02
-5.0000000000000000e+02 5.0000000000000000e+02
ITEM: ATOMS id type x y z c_q[1] c_q[2] c_q[3] c_q[4] 
2 1 -170.546 -498.058 -492.789 0.439138 0.356681 0.674892 0.473769 
1 1 -493.605 488.099 -492.559 0.0934644 0.26904 0.674121 0.6815 
10 1 -493.39 482.495 -184.374 0.115229 0.432022 0.718303 0.533029 
4 1 499.75 -187.09 493.478 0.220382 -0.222241 0.524203 0.791992 
5 1 -155.206 -148.14 494.264 0.578854 0.152614 0.228157 0.767842 
6 1 168.164 -160.397 482.347 0.27064 0.375892 0.318384 0.827097 
9 1 144.081 153.6 486.087 0.35549 0.287985 0.886993 0.0627295 
7 1 -494.574 177.424 489.649 0.423633 0.362372 0.653855 0.511562 
8 1 -171.236 181.016 480.202 0.561722 -0.0535374 0.613643 0.552309 
3 1 155.577 497.734 484.594 0.588037 0.617204 0.296567 0.430487 
ITEM: TIMESTEP
300000
ITEM: NUMBER OF ATOMS
10
ITEM: BOX BOUNDS pp pp pp
-5.0000000000000000e+02 5.0000000000000000e+02
-5.0000000000000000e+02 5.0000000000000000e+02
-5.0000000000000000e+02 5.0000000000000000e+02
ITEM: ATOMS id type x y z c_q[1] c_q[2] c_q[3] c_q[4] 
1 1 -493.958 481.371 -497.574 0.117797 0.305582 0.669555 0.666663 
2 1 -164.856 499.488 -494.386 0.416454 0.333209 0.657891 0.531711 
10 1 -499.081 482.563 -187.216 0.0899662 0.484319 0.710816 0.502077 
4 1 -498.87 -187.659 494.203 0.263688 -0.212104 0.476051 0.8117 
5 1 -157.598 -143.817 495.82 0.598038 0.216453 0.217912 0.740279 
6 1 173.597 -158.524 483.195 0.265682 0.364275 0.34028 0.825183 
9 1 144.103 151.028 487.734 0.343141 0.277413 0.892733 0.0912332 
7 1 -494.251 174.052 495.76 0.336691 0.372916 0.691418 0.519147 
8 1 -163.956 182.197 481.88 0.531326 -0.0544288 0.619295 0.575503 
3 1 152.593 493.355 485.764 0.536277 0.636714 0.308052 0.46055 
ITEM: TIMESTEP
310000
ITEM: NUMBER OF ATOMS
10
ITEM: BOX BOUNDS pp pp pp
-5.0000000000000000e+02 5.0000000000000000e+02
-5.0000000000000000e+02 5.0000000000000000e+02
-5.0000000000000000e+02 5.0000000000000000e+02
ITEM: ATOMS id type x y z c_q[1] c_q[2] c_q[3] c_q[4] 
2 1 -166.789 -498.473 -496.081 0.435606 0.320489 0.649837 0.534084 
1 1 -493.289 477.024 -493.336 0.108676 0.259782 0.67421 0.682747 
10 1 495.162 489.049 -188.341 0.0734466 0.5127 0.675967 0.524226 
4 1 497.85 -193.429 492.049 0.280111 -0.22889 0.509441 0.78078 
5 1 -155.692 -143.646 500.138 0.601945 0.187749 0.183053 0.754257 
6 1 173.872 -153.964 488.196 0.250877 0.379601 0.31936 0.831248 
9 1 147.54 150.231 480.03 0.361694 0.287894 0.878807 0.118293 
7 1 -497.976 174.846 497.633 0.257656 0.373828 0.743362 0.491202 
8 1 -168.482 185.48 483.646 0.508213 -0.0538425 0.62186 0.59339 
3 1 152.769 497.499 487.43 0.556811 0.608633 0.354204 0.440529 
ITEM: TIMESTEP
320000
ITEM: NUMBER OF ATOMS
10
ITEM: BOX BOUNDS pp pp pp
-5.0000000000000000e+02 5.0000000000000000e+02
-5.0000000000000000e+02 5.0000000000000000e+02
-5.0000000000000000e+02 5.0000000000000000e+02
ITEM: ATOMS id type x y z c_q[1] c_q[2] c_q[3] c_q[4] 