ITEM: TIMESTEP
0
ITEM: NUMBER OF ATOMS
15
ITEM: BOX BOUNDS
-500.000000 500.000000
-500.000000 500.000000
-500.000000 500.000000
ITEM: ATOMS id type x y z c_q[1] c_q[2] c_q[3] c_q[4]
1 1 -500.000000 -500.000000 -500.000000 0.012810 0.069181 0.483554 0.872482
2 1 -166.666667 -500.000000 -500.000000 0.429460 0.704137 0.561985 0.062676
3 1 166.666667 -500.000000 -500.000000 0.282285 0.865066 0.176249 0.375382
4 1 -500.000000 -166.666667 -500.000000 0.123911 0.613354 0.343601 0.700272
5 1 -166.666667 -166.666667 -500.000000 0.519335 0.642567 0.381425 0.414625
6 1 166.666667 -166.666667 -500.000000 0.549296 0.679341 0.320147 0.366437
7 1 -500.000000 166.666667 -500.000000 0.086706 0.234683 0.488894 0.835696
8 1 -166.666667 166.666667 -500.000000 0.727866 0.215872 0.313484 0.570384
9 1 166.666667 166.666667 -500.000000 0.645465 0.690426 0.030232 0.325227
10 1 -500.000000 -500.000000 -166.666667 0.144545 0.646622 0.621013 0.418725
11 1 -166.666667 -500.000000 -166.666667 0.580028 0.477638 0.644608 0.141103
12 1 166.666667 -500.000000 -166.666667 0.126160 0.335475 0.529484 0.768887
13 1 -500.000000 -166.666667 -166.666667 0.483227 0.531140 0.474121 0.509501
14 1 -166.666667 -166.666667 -166.666667 0.416584 0.734626 0.096057 0.526835
15 1 166.666667 -166.666667 -166.666667 0.195334 0.178918 0.659021 0.703935
