ITEM: TIMESTEP
0
ITEM: NUMBER OF ATOMS
15
ITEM: BOX BOUNDS pp pp pp
-5.0000000000000000e+02 5.0000000000000000e+02
-5.0000000000000000e+02 5.0000000000000000e+02
-5.0000000000000000e+02 5.0000000000000000e+02
ITEM: ATOMS id type x y z c_q[1] c_q[2] c_q[3] c_q[4] 
1 1 -500 -500 -500 0.01281 0.069181 0.483554 0.872482 
2 1 -166.667 -500 -500 0.42946 0.704137 0.561985 0.062676 
3 1 166.667 -500 -500 0.282285 0.865066 0.176249 0.375382 
4 1 -500 -166.667 -500 0.123911 0.613354 0.343601 0.700272 
5 1 -166.667 -166.667 -500 0.519335 0.642567 0.381425 0.414625 
6 1 166.667 -166.667 -500 0.549296 0.679341 0.320147 0.366437 
7 1 -500 166.667 -500 0.086706 0.234683 0.488894 0.835696 
8 1 -166.667 166.667 -500 0.727866 0.215872 0.313484 0.570384 
9 1 166.667 166.667 -500 0.645465 0.690426 0.030232 0.325227 
10 1 -500 -500 -166.667 0.144545 0.646622 0.621013 0.418725 
11 1 -166.667 -500 -166.667 0.580028 0.477638 0.644608 0.141103 
12 1 166.667 -500 -166.667 0.12616 0.335475 0.529484 0.768887 
13 1 -500 -166.667 -166.667 0.483227 0.53114 0.474121 0.509501 
14 1 -166.667 -166.667 -166.667 0.416584 0.734626 0.096057 0.526835 
15 1 166.667 -166.667 -166.667 0.195334 0.178918 0.659021 0.703935 
ITEM: TIMESTEP
10000
ITEM: NUMBER OF ATOMS
15
ITEM: BOX BOUNDS pp pp pp
-5.0000000000000000e+02 5.0000000000000000e+02
-5.0000000000000000e+02 5.0000000000000000e+02
-5.0000000000000000e+02 5.0000000000000000e+02
ITEM: ATOMS id type x y z c_q[1] c_q[2] c_q[3] c_q[4] 
2 1 -168.097 -498.07 -499.065 0.403817 0.702578 0.585696 0.0166391 
6 1 164.279 -171.181 -497.237 0.541271 0.709911 0.282768 0.350848 
4 1 496.014 -164.947 -499.092 0.117921 0.594686 0.342905 0.717537 
9 1 163.131 166.723 -496.353 0.610124 0.722833 0.0396091 0.322013 
1 1 497.238 498.522 -497.67 0.0501349 0.0416097 0.47532 0.877397 
12 1 164.237 -492.329 -170.099 0.0520321 0.324319 0.504875 0.798255 
10 1 499.296 -499.659 -167.625 0.129103 0.651148 0.641636 0.384242 
11 1 -166.251 -499.844 -164.133 0.607395 0.480276 0.598086 0.206637 
13 1 499.778 -168.993 -165.253 0.486092 0.500018 0.457282 0.551897 
14 1 -171.024 -170.744 -166.572 0.371491 0.758181 0.0579588 0.532726 
15 1 170.442 -169.866 -165.535 0.209081 0.170264 0.62602 0.731707 
3 1 166.526 -495.551 497.052 0.265374 0.879519 0.186937 0.347961 
5 1 -163.429 -163.27 494.755 0.508162 0.627339 0.419171 0.415346 
7 1 495.159 164.929 497.934 0.139987 0.206303 0.477999 0.842235 
8 1 -167.824 170.449 498.775 0.74889 0.158511 0.330535 0.552073 
ITEM: TIMESTEP
20000
ITEM: NUMBER OF ATOMS
15
ITEM: BOX BOUNDS pp pp pp
-5.0000000000000000e+02 5.0000000000000000e+02
-5.0000000000000000e+02 5.0000000000000000e+02
-5.0000000000000000e+02 5.0000000000000000e+02
ITEM: ATOMS id type x y z c_q[1] c_q[2] c_q[3] c_q[4] 
6 1 160.09 -170.889 -499.437 0.546317 0.689169 0.283441 0.38242 
9 1 166.834 168.842 -494.388 0.584387 0.735512 0.0829896 0.332607 
2 1 -166.033 499.011 -498.623 0.382109 0.705152 0.596702 -0.0264517 
1 1 -499.735 499.841 -498.794 0.0839872 -0.00863708 0.489286 0.868027 
12 1 162.482 -492.918 -169.609 0.0428612 0.319602 0.516861 0.793015 
10 1 495.828 -493.106 -174.104 0.103654 0.695349 0.602856 0.377241 
11 1 -163.888 -495.813 -166.394 0.60188 0.465348 0.59347 0.262648 
14 1 -171.443 -166.764 -162.982 0.377253 0.76228 0.100576 0.51623 
15 1 167.045 -169.774 -162.09 0.204271 0.0965526 0.641653 0.732962 
13 1 495.925 -171.564 -164.508 0.490194 0.49251 0.455871 0.556171 
3 1 166.295 -494.764 -499.126 0.269355 0.88023 0.191327 0.340641 
5 1 -167.298 -162.137 497.195 0.45421 0.679309 0.446972 0.363935 
4 1 499.1 -165.115 -499.351 0.129663 0.559005 0.382822 0.72398 
8 1 -171.453 163.388 498.97 0.748724 0.150547 0.355065 0.539144 
7 1 494.657 163.99 498.872 0.139084 0.24449 0.459433 0.842498 
ITEM: TIMESTEP
30000
ITEM: NUMBER OF ATOMS
15
ITEM: BOX BOUNDS pp pp pp
-5.0000000000000000e+02 5.0000000000000000e+02
-5.0000000000000000e+02 5.0000000000000000e+02
-5.0000000000000000e+02 5.0000000000000000e+02
ITEM: ATOMS id type x y z c_q[1] c_q[2] c_q[3] c_q[4] 
4 1 -496.903 -165.577 -498.786 0.164728 0.606273 0.354627 0.692487 
7 1 497.513 163.532 -498.441 0.123502 0.272253 0.46586 0.832826 
9 1 169.323 168.187 -496.08 0.597387 0.722418 0.0803988 0.338788 
1 1 498.715 495.812 -498.598 0.0996232 0.0131985 0.503707 0.85801 
10 1 -498.316 -493.621 -172.16 0.0895416 0.689958 0.618649 0.364985 
11 1 -172.354 -494.77 -167.4 0.587057 0.489461 0.593325 0.252503 
12 1 162.43 -497.984 -168.95 0.0289516 0.35073 0.492321 0.796097 
15 1 166.678 -168.77 -164.926 0.123036 0.104563 0.639639 0.751525 
13 1 493.277 -173.969 -159.109 0.489742 0.501056 0.4773 0.530359 
14 1 -167.821 -163.659 -161.322 0.396696 0.799769 0.0790723 0.443564 
3 1 165.306 -498.923 497.467 0.229594 0.915346 0.209276 0.256188 
6 1 153.954 -175.385 495.634 0.515714 0.646779 0.324482 0.458723 
5 1 -167.978 -159.693 497.832 0.466029 0.694836 0.427953 0.341871 
8 1 -163.097 158.899 -499.798 0.742823 0.150189 0.300528 0.579086 
2 1 -166.157 493.279 499.763 0.41183 0.734788 0.538075 -0.0309594 
ITEM: TIMESTEP
40000
ITEM: NUMBER OF ATOMS
15
ITEM: BOX BOUNDS pp pp pp
-5.0000000000000000e+02 5.0000000000000000e+02
-5.0000000000000000e+02 5.0000000000000000e+02
-5.0000000000000000e+02 5.0000000000000000e+02
ITEM: ATOMS id type x y z c_q[1] c_q[2] c_q[3] c_q[4] 
4 1 -493.364 -166.092 -496.157 0.140344 0.641093 0.354011 0.666318 
7 1 499.07 160.366 -498.995 0.108754 0.293634 0.450883 0.835856 
9 1 168.702 165.252 -496.803 0.601386 0.71841 0.0392902 0.347386 
1 1 499.505 488.88 -496.108 0.134101 0.0329269 0.508499 0.849919 
2 1 -172.024 496.94 499.612 0.402041 0.74994 0.523564 -0.0428294 
10 1 -497.884 -493.12 -172.128 0.0916189 0.689609 0.641378 0.323541 
12 1 162.486 -496.477 -166.197 0.0427159 0.277781 0.525048 0.803329 
11 1 -169.69 499.288 -166.535 0.635082 0.472639 0.55899 0.246605 
15 1 173.566 -171.606 -162.451 0.186022 0.0990212 0.643339 0.736007 
13 1 492.997 -175.774 -157.828 0.466048 0.51937 0.480723 0.530998 
14 1 -162.002 -165.084 -162.683 0.378426 0.807951 0.0917638 0.442253 
6 1 156.053 -170.389 490.246 0.523038 0.669514 0.300246 0.433629 
5 1 -167.439 -156.032 498.419 0.458545 0.695708 0.44345 0.330272 
8 1 -165.354 159.337 499.467 0.75403 0.108836 0.299281 0.574478 
3 1 163.602 492.873 495.579 0.224794 0.91455 0.213446 0.259821 
ITEM: TIMESTEP
50000
ITEM: NUMBER OF ATOMS
15
ITEM: BOX BOUNDS pp pp pp
-5.0000000000000000e+02 5.0000000000000000e+02
-5.0000000000000000e+02 5.0000000000000000e+02
-5.0000000000000000e+02 5.0000000000000000e+02
ITEM: ATOMS id type x y z c_q[1] c_q[2] c_q[3] c_q[4] 
4 1 -491.358 -170.99 -494.955 0.104517 0.684164 0.336111 0.638768 
9 1 169.723 165.041 499.545 0.628962 0.703588 0.0312785 0.329229 
1 1 -499.431 486.049 -492.951 0.103579 0.0343408 0.483215 0.868674 
2 1 -169.235 494.29 -497.817 0.411983 0.747161 0.518244 -0.0586836 
10 1 -498.1 -493.842 -168.58 0.130218 0.702458 0.625774 0.313053 
11 1 -171.283 -499.701 -167.257 0.606243 0.498028 0.562979 0.259793 
12 1 158.219 -497.054 -164.66 0.0366839 0.260686 0.527126 0.807982 
15 1 165.238 -174.662 -165.049 0.19455 0.051417 0.617747 0.760194 
13 1 482.475 -177.521 -162.139 0.437481 0.485461 0.546127 0.524103 
14 1 -164.527 -159.551 -160.336 0.410259 0.797212 0.0618721 0.438534 
6 1 154.392 -172.374 487.992 0.515782 0.69818 0.233778 0.438021 
5 1 -167.515 -157.253 494.292 0.443186 0.681892 0.431997 0.389857 
7 1 -497.623 164.174 -498.793 0.0753116 0.313292 0.451318 0.832159 
8 1 -164.144 155.907 496.685 0.817091 0.138948 0.285489 0.481199 
3 1 161.594 490.101 496.202 0.202168 0.90106 0.26573 0.276778 
ITEM: TIMESTEP
60000
ITEM: NUMBER OF ATOMS
15
ITEM: BOX BOUNDS pp pp pp
-5.0000000000000000e+02 5.0000000000000000e+02
-5.0000000000000000e+02 5.0000000000000000e+02
-5.0000000000000000e+02 5.0000000000000000e+02
ITEM: ATOMS id type x y z c_q[1] c_q[2] c_q[3] c_q[4] 
4 1 -497.971 -171.386 -499.019 0.0616984 0.643448 0.355871 0.674925 
1 1 -495.325 488.542 -496.216 0.0781088 0.0225639 0.507631 0.85773 
2 1 -173.598 494.752 -498.162 0.391512 0.738892 0.540076 -0.0952626 
3 1 155.114 488.59 -498.978 0.214215 0.910635 0.228867 0.269213 
10 1 -496.889 -497.774 -168.27 0.101444 0.695518 0.632198 0.326022 
11 1 -176.98 -499.127 -168.449 0.591739 0.53025 0.568907 0.212191 
12 1 159.829 -498.766 -163.822 0.0255468 0.220574 0.539709 0.81204 
15 1 163.489 -177.058 -163.104 0.178636 0.0732095 0.600092 0.776285 
13 1 479.524 -176.619 -162.673 0.482706 0.422694 0.550208 0.534411 
14 1 -158.035 -162.363 -163.221 0.420804 0.776055 0.0940678 0.460233 
6 1 156.657 -176.613 489.576 0.545266 0.678708 0.183865 0.456327 
5 1 -169.78 -160.886 494.978 0.453008 0.649052 0.476302 0.382951 
8 1 -164.82 151.508 496.603 0.842352 0.136159 0.255103 0.454782 
7 1 496.652 161.779 -499.482 0.0832846 0.325642 0.460637 0.821483 
9 1 171.616 167.091 499.483 0.615244 0.714959 0.0302515 0.330746 
ITEM: TIMESTEP
70000
ITEM: NUMBER OF ATOMS
15
ITEM: BOX BOUNDS pp pp pp
-5.0000000000000000e+02 5.0000000000000000e+02
-5.0000000000000000e+02 5.0000000000000000e+02
-5.0000000000000000e+02 5.0000000000000000e+02
ITEM: ATOMS id type x y z c_q[1] c_q[2] c_q[3] c_q[4] 
4 1 499.924 -174.987 -498.493 0.044137 0.665514 0.348027 0.658802 
9 1 170.536 166.28 -495.438 0.633431 0.711809 0.0684868 0.295638 
7 1 498.24 166.308 -497.087 0.0646212 0.351921 0.436345 0.825578 
1 1 -494.39 494.593 -495.822 0.0682803 0.0312641 0.475421 0.876547 
10 1 -499.015 -498.896 -164.625 0.102575 0.726414 0.616698 0.285455 
11 1 -180.706 -496.644 -166.835 0.611039 0.551044 0.536329 0.187973 
12 1 161.061 -494.381 -158.928 0.0454034 0.213366 0.559797 0.7994 
15 1 164.21 -180.493 -160.728 0.170189 0.0627649 0.632357 0.753141 
13 1 477.857 -170.354 -158.965 0.47565 0.453598 0.543698 0.521918 
14 1 -157.384 -164.035 -163.952 0.410908 0.779345 0.0465551 0.470753 
6 1 152.963 -177.845 481.874 0.52884 0.67912 0.214833 0.461488 
5 1 -165.502 -157.494 487.998 0.431614 0.669348 0.497408 0.343901 
8 1 -164.414 154.799 498.754 0.848407 0.107569 0.247079 0.455617 
2 1 -174.007 496.894 496.428 0.407694 0.717269 0.55755 -0.0919131 
3 1 153.769 488.513 497.963 0.216079 0.893729 0.276756 0.27922 
ITEM: TIMESTEP
80000
ITEM: NUMBER OF ATOMS
15
ITEM: BOX BOUNDS pp pp pp
-5.0000000000000000e+02 5.0000000000000000e+02
-5.0000000000000000e+02 5.0000000000000000e+02
-5.0000000000000000e+02 5.0000000000000000e+02
ITEM: ATOMS id type x y z c_q[1] c_q[2] c_q[3] c_q[4] 
4 1 -497.158 -170.634 -498.485 0.0548673 0.660753 0.352577 0.660366 
9 1 176.318 165.19 -499.712 0.642825 0.705111 0.086193 0.286643 
7 1 498.527 162.54 -499.824 0.0876794 0.356756 0.422958 0.828338 
1 1 -491.137 494.399 -491.528 0.0785262 -0.0089676 0.472041 0.878026 
11 1 -179.241 -494.233 -162.835 0.597969 0.578455 0.509213 0.220284 
12 1 162.915 -498.873 -153.882 0.0415162 0.224763 0.555188 0.799703 
15 1 165.824 -177.072 -161.221 0.1993 0.0800448 0.604755 0.766905 
13 1 481.102 -169.352 -162.273 0.482545 0.495043 0.548316 0.470567 
14 1 -157.745 -160.834 -164.746 0.392638 0.792424 0.0562031 0.463402 
10 1 -496.608 499.8 -164.158 0.0639247 0.747012 0.591604 0.296465 
2 1 -175.002 -498.806 497.216 0.349449 0.732917 0.578495 -0.0778561 
6 1 155.414 -175.876 482.914 0.515204 0.685149 0.242259 0.454363 
5 1 -162.17 -155.632 486.205 0.462707 0.629312 0.524263 0.339142 
8 1 -163.537 150.893 498.707 0.871493 0.138301 0.228034 0.411549 
3 1 157.227 486.799 498.962 0.252136 0.888768 0.260945 0.280048 
ITEM: TIMESTEP
90000
ITEM: NUMBER OF ATOMS
15
ITEM: BOX BOUNDS pp pp pp
-5.0000000000000000e+02 5.0000000000000000e+02
-5.0000000000000000e+02 5.0000000000000000e+02
-5.0000000000000000e+02 5.0000000000000000e+02
ITEM: ATOMS id type x y z c_q[1] c_q[2] c_q[3] c_q[4] 
4 1 499.807 -174.424 -498.511 0.0567548 0.636064 0.37067 0.674393 
9 1 177.974 169.682 -498.565 0.621344 0.719635 0.0647307 0.303096 
1 1 -493.927 494.965 -492.642 0.112736 -0.0157605 0.445777 0.887876 
10 1 -494.612 -496.74 -164.792 0.0751664 0.762608 0.57249 0.291605 
11 1 -182.248 -489.349 -165.509 0.600678 0.566103 0.51136 0.239217 
15 1 165.495 -182.091 -156.966 0.172443 0.0843786 0.550677 0.812341 
14 1 -156.277 -163.164 -158.934 0.39553 0.766712 0.0448289 0.503686 
13 1 482.959 -165.047 -163.975 0.548363 0.465681 0.535169 0.442757 
12 1 160.643 497.46 -150.31 0.0219153 0.177144 0.58544 0.790822 
6 1 161.267 -180.546 483.022 0.48971 0.71729 0.279407 0.409403 
5 1 -160.04 -159.801 489.197 0.43745 0.642736 0.531457 0.336277 
8 1 -164.651 155.393 499.288 0.859826 0.138144 0.251277 0.422463 
7 1 -498.741 162.282 494.046 0.101533 0.351993 0.42629 0.827085 
2 1 -176.298 498.186 495.268 0.318932 0.733566 0.597293 -0.0583493 
3 1 158.652 482.34 497.791 0.266414 0.895004 0.217521 0.284036 
ITEM: TIMESTEP
100000
ITEM: NUMBER OF ATOMS
15
ITEM: BOX BOUNDS pp pp pp
-5.0000000000000000e+02 5.0000000000000000e+02
-5.0000000000000000e+02 5.0000000000000000e+02
-5.0000000000000000e+02 5.0000000000000000e+02
ITEM: ATOMS id type x y z c_q[1] c_q[2] c_q[3] c_q[4] 
1 1 -493.935 493.22 -494.244 0.116842 -0.0463634 0.451189 0.883531 
3 1 159.162 482.485 -498.505 0.239956 0.883414 0.231201 0.329464 
11 1 -182.484 -489.682 -172.577 0.593193 0.584962 0.493849 0.249107 
13 1 485.304 -163.966 -167.614 0.530647 0.445866 0.553845 0.461382 
10 1 -490.054 -498.609 -163.472 0.0779969 0.750759 0.604853 0.253833 
12 1 163.42 -496.53 -150.669 -0.00600616 0.241298 0.544881 0.803022 
15 1 168.492 -185.664 -158.93 0.119595 0.106481 0.540015 0.826282 
14 1 -158.071 -163.481 -158.646 0.408135 0.771419 0.0939199 0.479079 
4 1 -498.338 -168.587 496.104 0.00331668 0.631429 0.371586 0.680595 
6 1 165.533 -183.596 482.881 0.480112 0.711345 0.265795 0.439129 
5 1 -162.698 -158.714 491.613 0.419311 0.637937 0.561357 0.319521 
8 1 -163.185 158.288 499.951 0.882401 0.133971 0.220522 0.393433 
9 1 177.759 167.758 495.156 0.628652 0.711927 0.0321991 0.311318 
7 1 495.246 170.804 492.159 0.0761035 0.415251 0.400783 0.81311 
2 1 -171.099 493.82 496.994 0.343139 0.723023 0.599236 -0.0202637 
ITEM: TIMESTEP
110000
ITEM: NUMBER OF ATOMS
15
ITEM: BOX BOUNDS pp pp pp
-5.0000000000000000e+02 5.0000000000000000e+02
-5.0000000000000000e+02 5.0000000000000000e+02
-5.0000000000000000e+02 5.0000000000000000e+02
ITEM: ATOMS id type x y z c_q[1] c_q[2] c_q[3] c_q[4] 
8 1 -159.91 156.61 -499.749 0.886212 0.157676 0.18655 0.393656 
1 1 -486.933 491.842 -497.487 0.113675 -0.0527962 0.442301 0.888066 
11 1 -181.49 -494.746 -171.122 0.604244 0.577478 0.488811 0.249944 
14 1 -161.291 -162.341 -166.526 0.448549 0.74321 0.0792333 0.490066 
13 1 486.021 -162.254 -166.388 0.605502 0.383165 0.441166 0.5403 
10 1 -492.294 -493.417 -162.438 0.0238758 0.763061 0.59914 0.241246 
12 1 164.12 -494.487 -151.705 -0.0153755 0.222882 0.571909 0.789308 
15 1 168.987 -187.855 -154.982 0.17534 0.123706 0.532383 0.818854 
4 1 -495.48 -172.384 496.766 -0.0287879 0.637735 0.374028 0.672732 
6 1 162.888 -183.81 484.26 0.453688 0.720432 0.323155 0.413178 
5 1 -161.111 -165.242 489.068 0.413183 0.631841 0.591381 0.283418 
9 1 175.897 164.554 497.076 0.673709 0.668915 0.0302522 0.312656 
7 1 495.336 170.952 494.078 0.0644729 0.409396 0.425201 0.804638 
2 1 -171.375 487.524 498.334 0.330872 0.719572 0.609694 -0.0318379 
3 1 161.412 476.128 498.022 0.228856 0.90389 0.18602 0.309845 
ITEM: TIMESTEP
120000
ITEM: NUMBER OF ATOMS
15
ITEM: BOX BOUNDS pp pp pp
-5.0000000000000000e+02 5.0000000000000000e+02
-5.0000000000000000e+02 5.0000000000000000e+02
-5.0000000000000000e+02 5.0000000000000000e+02
ITEM: ATOMS id type x y z c_q[1] c_q[2] c_q[3] c_q[4] 
8 1 -156.927 155.388 -499.198 0.92017 0.135254 0.172989 0.324143 
1 1 -487.074 493.672 -497.138 0.129511 -0.0697627 0.449059 0.88131 
2 1 -171.497 493.228 499.12 0.343429 0.715123 0.608796 0.0049346 
3 1 162.289 481.147 -498.718 0.221912 0.895684 0.204274 0.326768 
11 1 -178.605 -488.522 -169.769 0.58201 0.612585 0.476293 0.243205 
13 1 487.331 -163.046 -174.131 0.618729 0.324985 0.442203 0.562154 
10 1 -492.521 -494.963 -162.488 0.0385415 0.767599 0.599072 0.224543 
12 1 165.547 -491.43 -151.594 -0.00200848 0.172797 0.588721 0.789649 
15 1 177.78 -190.218 -156.083 0.186828 0.134202 0.514365 0.826144 
14 1 -171.266 -162.105 -165.426 0.453155 0.725639 0.11026 0.505906 
4 1 -497.032 -174.708 494.03 -0.0465862 0.638399 0.423171 0.641251 
6 1 164.531 -182.625 484.88 0.393356 0.745758 0.345321 0.412154 
5 1 -168.236 -165.864 490.137 0.400937 0.620902 0.599326 0.307471 
9 1 176.621 166.199 -499.616 0.684911 0.653053 0.0101512 0.322979 
7 1 495.652 170.857 489.608 0.0375534 0.429618 0.404306 0.80657 
ITEM: TIMESTEP
130000
ITEM: NUMBER OF ATOMS
15
ITEM: BOX BOUNDS pp pp pp
-5.0000000000000000e+02 5.0000000000000000e+02
-5.0000000000000000e+02 5.0000000000000000e+02
-5.0000000000000000e+02 5.0000000000000000e+02
ITEM: ATOMS id type x y z c_q[1] c_q[2] c_q[3] c_q[4] 
9 1 178.713 167.067 -496.3 0.685043 0.673322 -0.0865871 0.264303 
1 1 -493.024 491.454 -496.412 0.150749 -0.120208 0.422034 0.88584 
11 1 -178.434 -492.384 -169.273 0.608997 0.600871 0.472707 0.211246 
13 1 486.055 -166.353 -179.013 0.662573 0.309559 0.434828 0.525446 
10 1 -489.77 -494.479 -162.588 0.0613387 0.739821 0.634173 0.216165 
12 1 171.777 -490.475 -155.202 0.0120704 0.145444 0.581989 0.799993 
15 1 183.283 -194.714 -151.344 0.223643 0.131514 0.495856 0.828743 
14 1 -175.956 -165.525 -166.654 0.439515 0.740537 0.154069 0.484452 
6 1 163.7 -179.759 486.781 0.367864 0.750477 0.355493 0.418432 
4 1 496.527 -180.843 496.378 0.00371185 0.612421 0.404049 0.679464 
5 1 -166.458 -160.624 491.285 0.401506 0.639999 0.583349 0.298157 
8 1 -156.397 154.62 495.63 0.911107 0.127436 0.218942 0.325127 
7 1 496.284 174.133 487.769 0.05316 0.463315 0.409107 0.784312 
2 1 -168.243 489.393 497.525 0.37918 0.700886 0.604109 0.00577844 
3 1 164.42 475.786 497.827 0.200363 0.901397 0.198912 0.328288 
ITEM: TIMESTEP
140000
ITEM: NUMBER OF ATOMS
15
ITEM: BOX BOUNDS pp pp pp
-5.0000000000000000e+02 5.0000000000000000e+02
-5.0000000000000000e+02 5.0000000000000000e+02
-5.0000000000000000e+02 5.0000000000000000e+02
ITEM: ATOMS id type x y z c_q[1] c_q[2] c_q[3] c_q[4] 
9 1 184.647 169.021 -491.334 0.677284 0.677235 -0.105917 0.267246 
1 1 -491.553 486.675 -498.743 0.151877 -0.158858 0.431192 0.875084 
2 1 -170.326 491.506 -498.473 0.363796 0.707377 0.605911 -0.0119242 
10 1 -489.785 -492.207 -167.707 0.0220192 0.741619 0.639004 0.202953 
11 1 -181.053 -489.428 -168.768 0.628225 0.602158 0.441032 0.219614 
14 1 -179.929 -169.907 -167.595 0.480794 0.717378 0.102417 0.493677 
13 1 487.023 -162.103 -184.827 0.642834 0.339789 0.453626 0.515297 
12 1 167.865 -486.798 -156.339 0.0678313 0.1862 0.580846 0.789523 
15 1 186.805 -196.257 -147.773 0.217496 0.0746328 0.490467 0.840576 
6 1 165.496 -179.915 487.584 0.361178 0.72411 0.356924 0.466711 
4 1 494.776 -173.223 496.966 -0.0266402 0.550922 0.373081 0.746047 
5 1 -159.83 -163.217 493.257 0.422338 0.670153 0.565034 0.230786 
8 1 -160.058 154.772 491.522 0.90996 0.131232 0.220835 0.325549 
7 1 497.807 170.523 489.183 0.0823897 0.459355 0.434306 0.770443 
3 1 161.619 468.697 497.216 0.176002 0.907614 0.230682 0.303391 
ITEM: TIMESTEP
150000
ITEM: NUMBER OF ATOMS
15
ITEM: BOX BOUNDS pp pp pp
-5.0000000000000000e+02 5.0000000000000000e+02
-5.0000000000000000e+02 5.0000000000000000e+02
-5.0000000000000000e+02 5.0000000000000000e+02
ITEM: ATOMS id type x y z c_q[1] c_q[2] c_q[3] c_q[4] 
9 1 188.767 168.855 -490.918 0.668406 0.680132 -0.0901501 0.287276 
1 1 -490.461 489.171 -497.149 0.155151 -0.185626 0.409388 0.8797 
2 1 -173.678 491.246 -498.073 0.313827 0.740971 0.591705 -0.0485713 
11 1 -179.248 -487.22 -167.576 0.637942 0.57635 0.455219 0.231575 
14 1 -182.113 -174.027 -170.156 0.508734 0.693821 0.106159 0.49853 
13 1 486.507 -160.827 -182.68 0.646784 0.356729 0.466292 0.486814 
10 1 -490.252 -491.927 -165.484 0.0368264 0.739473 0.644043 0.192437 
12 1 159.899 -483.802 -154.08 0.0730483 0.169434 0.604112 0.775245 
15 1 187.609 -194.477 -150.673 0.244452 0.0459922 0.463272 0.850593 
6 1 167.79 -181.573 484.321 0.370439 0.678151 0.342967 0.534097 
4 1 496.948 -171.586 490.786 0.0278271 0.526709 0.364062 0.767634 
5 1 -162.052 -159.021 494.031 0.418103 0.691216 0.538697 0.239199 
8 1 -159.157 154.823 489.627 0.920103 0.163088 0.224156 0.276707 
7 1 495.77 174.004 484.385 0.0665642 0.455211 0.412316 0.786351 
3 1 161.763 466.971 495.707 0.170029 0.905268 0.245521 0.302159 
ITEM: TIMESTEP
160000
ITEM: NUMBER OF ATOMS
15
ITEM: BOX BOUNDS pp pp pp
-5.0000000000000000e+02 5.0000000000000000e+02
-5.0000000000000000e+02 5.0000000000000000e+02
-5.0000000000000000e+02 5.0000000000000000e+02
ITEM: ATOMS id type x y z c_q[1] c_q[2] c_q[3] c_q[4] 
9 1 191.098 165.238 -489.263 0.678993 0.686744 -0.0805249 0.246713 
1 1 -489.993 492.598 -496.541 0.199247 -0.144261 0.387932 0.888256 
11 1 -176.133 -481.058 -168.172 0.609852 0.601992 0.463802 0.224886 
14 1 -185.24 -174.746 -167.97 0.518604 0.685046 0.109994 0.499663 
13 1 485.475 -162.377 -186.133 0.608217 0.386473 0.476918 0.50325 
10 1 -492.422 -496.379 -161.663 0.0600359 0.711169 0.667808 0.211345 
12 1 159.199 -481.033 -153.617 0.0283247 0.212917 0.619757 0.754828 
15 1 188.583 -188.577 -148.63 0.208696 0.0702234 0.483655 0.847108 
6 1 170.718 -176.923 483.318 0.417477 0.666245 0.356203 0.504926 
4 1 494.572 -169.93 488.286 0.0804861 0.515361 0.372526 0.767561 
5 1 -161.725 -153.459 490.817 0.398846 0.671644 0.549801 0.295862 
8 1 -165.012 156.373 484.909 0.90608 0.12938 0.223786 0.334962 
7 1 492.421 178.731 479.68 0.0456902 0.505088 0.400287 0.763262 
2 1 -172.494 491.004 491.565 0.297055 0.741725 0.593191 -0.0986265 
3 1 161.419 469.798 497.275 0.14431 0.89578 0.29998 0.29456 
ITEM: TIMESTEP
170000
ITEM: NUMBER OF ATOMS
15
ITEM: BOX BOUNDS pp pp pp
-5.0000000000000000e+02 5.0000000000000000e+02
-5.0000000000000000e+02 5.0000000000000000e+02
-5.0000000000000000e+02 5.0000000000000000e+02
ITEM: ATOMS id type x y z c_q[1] c_q[2] c_q[3] c_q[4] 
9 1 187.323 163.323 -491.488 0.671973 0.697369 -0.0541866 0.243296 
1 1 -484.606 493.628 -497.679 0.239129 -0.142682 0.383605 0.880515 
11 1 -179.466 -483.212 -171.208 0.610611 0.607915 0.4672 0.198287 
14 1 -188.558 -171.672 -168.521 0.535845 0.679318 0.0924908 0.49279 
13 1 485.13 -168.533 -182.787 0.598053 0.376065 0.476978 0.522876 
10 1 -490.608 499.764 -160.966 0.0169544 0.714207 0.66271 0.22458 
12 1 166.311 -480.038 -150.681 0.0195003 0.158882 0.605564 0.779531 
15 1 199.105 -187.677 -152.39 0.218941 0.0524515 0.468984 0.854031 
6 1 171.26 -178.231 477.513 0.415534 0.661075 0.332937 0.528644 
4 1 491.316 -170.857 485.74 0.138596 0.495962 0.348274 0.783274 
5 1 -158.357 -151.504 493.201 0.365379 0.668282 0.571139 0.306103 
8 1 -165.285 152.857 485.245 0.900842 0.136564 0.213646 0.352404 
7 1 491.277 177.3 476.841 0.0426505 0.464627 0.41661 0.780217 
2 1 -176.333 492.561 489.503 0.3261 0.751336 0.569484 -0.0695718 
3 1 157.445 468.943 499.856 0.169409 0.881332 0.307693 0.316035 
ITEM: TIMESTEP
180000
ITEM: NUMBER OF ATOMS
15
ITEM: BOX BOUNDS pp pp pp
-5.0000000000000000e+02 5.0000000000000000e+02
-5.0000000000000000e+02 5.0000000000000000e+02
-5.0000000000000000e+02 5.0000000000000000e+02
ITEM: ATOMS id type x y z c_q[1] c_q[2] c_q[3] c_q[4] 
9 1 184.715 162.238 -491.496 0.665583 0.694608 -0.0336682 0.270898 
1 1 -483.497 498.421 -495.192 0.254429 -0.0633887 0.419315 0.869151 
11 1 -180.52 -480.872 -171.033 0.616829 0.623299 0.435949 0.202409 
14 1 -187.769 -171.48 -168.91 0.504104 0.722947 0.0478778 0.470036 
13 1 490.468 -170.784 -178.181 0.621676 0.360383 0.462469 0.519389 
10 1 -488.144 -499.115 -159.925 0.0272805 0.761478 0.604592 0.232113 
12 1 168.039 -474.257 -149.973 0.00879185 0.19049 0.607347 0.77121 
15 1 196.936 -182.55 -149.085 0.22754 0.0658906 0.492484 0.837462 
6 1 168.884 -184.209 478.212 0.410701 0.65376 0.35414 0.527738 
4 1 491.243 -173.427 481.76 0.112685 0.491867 0.342153 0.792654 
5 1 -156.022 -147.716 491.411 0.347056 0.620767 0.630489 0.310941 
8 1 -163.185 155.379 486.743 0.88078 0.129389 0.246142 0.383274 
7 1 487.494 177.414 473.42 -0.0155996 0.427026 0.44344 0.787887 
2 1 -175.894 491.769 484.194 0.361149 0.736796 0.570277 -0.0385729 
3 1 162.424 468.295 497.961 0.176892 0.860676 0.351339 0.323276 
ITEM: TIMESTEP
190000
ITEM: NUMBER OF ATOMS
15
ITEM: BOX BOUNDS pp pp pp
-5.0000000000000000e+02 5.0000000000000000e+02
-5.0000000000000000e+02 5.0000000000000000e+02
-5.0000000000000000e+02 5.0000000000000000e+02
ITEM: ATOMS id type x y z c_q[1] c_q[2] c_q[3] c_q[4] 
9 1 186.014 162.715 -493.683 0.703181 0.654387 -0.0720181 0.268566 
1 1 -484.052 493.716 -488.482 0.232791 -0.123266 0.375703 0.888516 
11 1 -178.125 -477.971 -169.754 0.574092 0.656746 0.426937 0.238384 
14 1 -190.797 -176.659 -170.188 0.479713 0.697163 0.0392676 0.531317 
13 1 488.381 -168.011 -170.285 0.615745 0.361675 0.459753 0.527898 
12 1 171.295 -473.69 -149.488 -0.0274539 0.221456 0.584069 0.780427 
15 1 201.32 -181.762 -154.843 0.183972 0.0778876 0.481186 0.85355 
10 1 -489.382 497.289 -162.508 0.0425117 0.755065 0.628723 0.181045 
6 1 169.446 -184.235 476.775 0.386544 0.596874 0.429348 0.556764 
4 1 493.213 -175.85 483.739 0.119595 0.48151 0.354918 0.792388 
5 1 -151.595 -140.721 490.928 0.346996 0.613889 0.633309 0.318833 
8 1 -162.139 160.108 481.203 0.879385 0.121323 0.253195 0.384519 
7 1 483.597 170.593 476.867 -0.0325796 0.434537 0.466095 0.769982 
2 1 -173.576 491.023 475.31 0.380911 0.746778 0.544872 -0.0185514 
3 1 165.469 470.942 491.348 0.160919 0.851548 0.379546 0.323907 
ITEM: TIMESTEP
200000
ITEM: NUMBER OF ATOMS
15
ITEM: BOX BOUNDS pp pp pp
-5.0000000000000000e+02 5.0000000000000000e+02
-5.0000000000000000e+02 5.0000000000000000e+02
-5.0000000000000000e+02 5.0000000000000000e+02
ITEM: ATOMS id type x y z c_q[1] c_q[2] c_q[3] c_q[4] 
9 1 185.561 163.813 -492.426 0.732143 0.6182 -0.108787 0.264501 
1 1 -486.157 493.753 -488.336 0.252163 -0.114855 0.418167 0.865077 
11 1 -175.934 -477.92 -170.885 0.574498 0.625263 0.449233 0.277828 
14 1 -194.524 -180.606 -171.923 0.465407 0.704805 0.0623523 0.531751 
13 1 492.37 -172.979 -169.325 0.589994 0.361136 0.486044 0.534086 
12 1 173.608 -482.934 -151.2 -0.00894428 0.193558 0.555192 0.808837 
15 1 202.687 -181.152 -158.185 0.175428 0.0470609 0.473266 0.861991 
10 1 -491.604 494.629 -160.029 0.0397527 0.718644 0.666477 0.194366 
6 1 168.447 -181.636 475.632 0.396168 0.619878 0.440326 0.514699 
4 1 495.363 -176.387 489.262 0.105148 0.465097 0.383275 0.791031 
5 1 -152.083 -140.805 486.931 0.317171 0.584482 0.669243 0.331508 
8 1 -160.322 156.294 487.195 0.873053 0.121802 0.252806 0.398789 
7 1 481.69 168.062 479.885 -0.0394714 0.409702 0.465353 0.783603 
2 1 -170.502 493.45 475.043 0.353665 0.763955 0.533681 -0.0804865 
3 1 163.65 469.986 490.835 0.124858 0.871447 0.350237 0.319883 
ITEM: TIMESTEP
210000
ITEM: NUMBER OF ATOMS
15
ITEM: BOX BOUNDS pp pp pp
-5.0000000000000000e+02 5.0000000000000000e+02
-5.0000000000000000e+02 5.0000000000000000e+02
-5.0000000000000000e+02 5.0000000000000000e+02
ITEM: ATOMS id type x y z c_q[1] c_q[2] c_q[3] c_q[4] 
9 1 188.236 161.467 -491.837 0.719263 0.611853 -0.140738 0.297473 
1 1 -481.65 494.61 -488.668 0.260706 -0.105717 0.408489 0.868328 
11 1 -178.157 -476.713 -171.669 0.586762 0.590778 0.447468 0.326289 
14 1 -196.872 -185.939 -169.314 0.479056 0.673927 0.027629 0.561752 
13 1 493.051 -174.212 -172.528 0.618871 0.377391 0.471786 0.501988 
12 1 169.952 -485.113 -149.682 -0.0160859 0.227824 0.560132 0.796297 
15 1 199.873 -178.171 -159.651 0.240043 0.0233413 0.453891 0.857798 
10 1 -492.459 493.448 -162.739 0.0304989 0.759075 0.612771 0.217685 
6 1 168.286 -181.449 476.756 0.35275 0.592648 0.47745 0.544405 
4 1 494.888 -177.509 483.566 0.105114 0.460379 0.36317 0.803188 
5 1 -158.517 -140.357 488.845 0.344681 0.587235 0.652926 0.33172 
8 1 -161.236 161.977 485.526 0.861628 0.114982 0.20842 0.44826 
7 1 480.62 171.794 480.657 0.0176475 0.437283 0.487987 0.755209 
2 1 -170.248 496.594 475.205 0.371429 0.767779 0.51173 -0.103387 
3 1 169.055 471.453 490.17 0.101155 0.89683 0.309455 0.299501 
ITEM: TIMESTEP
220000
ITEM: NUMBER OF ATOMS
15
ITEM: BOX BOUNDS pp pp pp
-5.0000000000000000e+02 5.0000000000000000e+02
-5.0000000000000000e+02 5.0000000000000000e+02
-5.0000000000000000e+02 5.0000000000000000e+02
ITEM: ATOMS id type x y z c_q[1] c_q[2] c_q[3] c_q[4] 
9 1 187.692 158.576 -491.676 0.721223 0.601402 -0.0875195 0.332406 
1 1 -481.961 490.924 -483.907 0.270445 -0.110035 0.418704 0.859906 
11 1 -170.765 -474.171 -170.457 0.551844 0.618869 0.448709 0.333361 
14 1 -200.912 -181.813 -170.805 0.481501 0.679519 0.0308313 0.552685 
13 1 487.547 -172.814 -171.552 0.557168 0.402115 0.558055 0.465234 
12 1 163.931 -486.079 -150.174 -0.0227183 0.249331 0.541269 0.802711 
15 1 196.549 -178.932 -158.522 0.249852 -0.0485112 0.413553 0.874182 
10 1 -493.311 487.479 -160.043 0.0617775 0.774022 0.601375 0.188205 
6 1 172.053 -181.121 481.526 0.31824 0.606473 0.473511 0.553806 
4 1 494.148 -175.858 485.526 0.0489566 0.435385 0.364588 0.821656 
5 1 -159.553 -139.296 488.71 0.29706 0.567891 0.688442 0.339562 
8 1 -164.14 157.696 482.783 0.887172 0.101157 0.154039 0.423044 
7 1 476.821 171.595 483.151 0.0295799 0.432503 0.464252 0.772358 
2 1 -170.544 495.069 470.355 0.347286 0.765916 0.534361 -0.0849906 
3 1 170.881 467.878 486.813 0.124366 0.911348 0.304711 0.247245 
ITEM: TIMESTEP
230000
ITEM: NUMBER OF ATOMS
15
ITEM: BOX BOUNDS pp pp pp
-5.0000000000000000e+02 5.0000000000000000e+02
-5.0000000000000000e+02 5.0000000000000000e+02
-5.0000000000000000e+02 5.0000000000000000e+02
ITEM: ATOMS id type x y z c_q[1] c_q[2] c_q[3] c_q[4] 
9 1 185.297 157.94 -487.623 0.745901 0.572934 -0.0958887 0.325859 
1 1 -475.253 484.037 -486.889 0.335031 -0.116225 0.402508 0.843939 
11 1 -169.633 -471.713 -171.326 0.539569 0.598353 0.487126 0.336969 
13 1 483.165 -169.093 -171.323 0.535202 0.400872 0.558465 0.490895 
12 1 163.829 -485.007 -153.375 -0.0251647 0.23869 0.508207 0.827115 
14 1 -196.878 -179.492 -164.578 0.471747 0.675861 -0.0252575 0.565711 
15 1 196.82 -182.578 -160.082 0.250178 -0.0396578 0.421588 0.870691 